 Entering Gaussian System, Link 0=g09
 Input=/home/scratch/M_H2O_4_cuadrado_plano/Opt/Cu2_cuadrado_plano_cc-pvtz-def2-tzv_2.gjf
 Output=/home/scratch/M_H2O_4_cuadrado_plano/Opt/Cu2_cuadrado_plano_cc-pvtz-def2-tzv_2.log
 Initial command:
 /opt/g09/l1.exe "/home/scratch/Gau-76237.inp" -scrdir="/home/scratch/"
 Entering Link 1 = /opt/g09/l1.exe PID=     76240.
  
 Copyright (c) 1988,1990,1992,1993,1995,1998,2003,2009,2015,
            Gaussian, Inc.  All Rights Reserved.
  
 This is part of the Gaussian(R) 09 program.  It is based on
 the Gaussian(R) 03 system (copyright 2003, Gaussian, Inc.),
 the Gaussian(R) 98 system (copyright 1998, Gaussian, Inc.),
 the Gaussian(R) 94 system (copyright 1995, Gaussian, Inc.),
 the Gaussian 92(TM) system (copyright 1992, Gaussian, Inc.),
 the Gaussian 90(TM) system (copyright 1990, Gaussian, Inc.),
 the Gaussian 88(TM) system (copyright 1988, Gaussian, Inc.),
 the Gaussian 86(TM) system (copyright 1986, Carnegie Mellon
 University), and the Gaussian 82(TM) system (copyright 1983,
 Carnegie Mellon University). Gaussian is a federally registered
 trademark of Gaussian, Inc.
  
 This software contains proprietary and confidential information,
 including trade secrets, belonging to Gaussian, Inc.
  
 This software is provided under written license and may be
 used, copied, transmitted, or stored only in accord with that
 written license.
  
 The following legend is applicable only to US Government
 contracts under FAR:
  
                    RESTRICTED RIGHTS LEGEND
  
 Use, reproduction and disclosure by the US Government is
 subject to restrictions as set forth in subparagraphs (a)
 and (c) of the Commercial Computer Software - Restricted
 Rights clause in FAR 52.227-19.
  
 Gaussian, Inc.
 340 Quinnipiac St., Bldg. 40, Wallingford CT 06492
  
  
 ---------------------------------------------------------------
 Warning -- This program may not be used in any manner that
 competes with the business of Gaussian, Inc. or will provide
 assistance to any competitor of Gaussian, Inc.  The licensee
 of this program is prohibited from giving any competitor of
 Gaussian, Inc. access to this program.  By using this program,
 the user acknowledges that Gaussian, Inc. is engaged in the
 business of creating and licensing software in the field of
 computational chemistry and represents and warrants to the
 licensee that it is not a competitor of Gaussian, Inc. and that
 it will not use this program in any manner prohibited above.
 ---------------------------------------------------------------
  

 Cite this work as:
 Gaussian 09, Revision E.01,
 M. J. Frisch, G. W. Trucks, H. B. Schlegel, G. E. Scuseria, 
 M. A. Robb, J. R. Cheeseman, G. Scalmani, V. Barone, B. Mennucci, 
 G. A. Petersson, H. Nakatsuji, M. Caricato, X. Li, H. P. Hratchian, 
 A. F. Izmaylov, J. Bloino, G. Zheng, J. L. Sonnenberg, M. Hada, 
 M. Ehara, K. Toyota, R. Fukuda, J. Hasegawa, M. Ishida, T. Nakajima, 
 Y. Honda, O. Kitao, H. Nakai, T. Vreven, J. A. Montgomery, Jr., 
 J. E. Peralta, F. Ogliaro, M. Bearpark, J. J. Heyd, E. Brothers, 
 K. N. Kudin, V. N. Staroverov, T. Keith, R. Kobayashi, J. Normand, 
 K. Raghavachari, A. Rendell, J. C. Burant, S. S. Iyengar, J. Tomasi, 
 M. Cossi, N. Rega, J. M. Millam, M. Klene, J. E. Knox, J. B. Cross, 
 V. Bakken, C. Adamo, J. Jaramillo, R. Gomperts, R. E. Stratmann, 
 O. Yazyev, A. J. Austin, R. Cammi, C. Pomelli, J. W. Ochterski, 
 R. L. Martin, K. Morokuma, V. G. Zakrzewski, G. A. Voth, 
 P. Salvador, J. J. Dannenberg, S. Dapprich, A. D. Daniels, 
 O. Farkas, J. B. Foresman, J. V. Ortiz, J. Cioslowski, 
 and D. J. Fox, Gaussian, Inc., Wallingford CT, 2013.
 
 ******************************************
 Gaussian 09:  EM64L-G09RevE.01 30-Nov-2015
                 8-Aug-2024 
 ******************************************
 %chk=Cu2_cuadrado_plano_cc-pvtz-def2-tzv_2.chk
 ----------------------------------------------------------------------
 # opt pbepbe/cc-pvtz/def2tzv pop=(full,nbo) geom=connectivity output=w
 fx
 ----------------------------------------------------------------------
 1/14=-1,18=20,19=15,26=3,38=1,57=2/1,3;
 2/9=110,12=2,17=6,18=5,40=1/2;
 3/5=16,6=1,11=2,16=1,25=1,30=1,71=1,74=1009,82=44/1,2,3;
 4//1;
 5/5=2,38=5/2;
 6/7=3,28=1,40=1/1,7;
 7//1,2,3,16;
 1/14=-1,18=20,19=15,26=3/3(2);
 2/9=110/2;
 99/6=200/99;
 2/9=110/2;
 3/5=16,6=1,11=2,16=1,25=1,30=1,71=1,74=1009,82=44/1,2,3;
 4/5=5,16=3,69=1/1;
 5/5=2,38=5/2;
 7//1,2,3,16;
 1/14=-1,18=20,19=15,26=3/3(-5);
 2/9=110/2;
 6/7=3,19=2,28=1,40=1/1,7;
 99/6=200,9=1/99;
 -------------------------------------
 Cu2_cuadrado_plano_cc-pvtz-def2-tzv_2
 -------------------------------------
 Symbolic Z-matrix:
 Charge =  3 Multiplicity = 1
 Cu                   -1    0.0014   -0.00423  -0.01815 
 O                    -1    0.35859  -1.89146  -0.01845 
 H                    0     0.47803  -2.36074   0.85312 
 O                    -1   -1.90754  -0.36184  -0.0183 
 H                    0    -2.46153   0.25426  -0.57463 
 O                    -1   -0.36224   1.90754  -0.01783 
 H                    0    -0.46181   2.37542   0.85687 
 O                    -1    1.90504   0.35793  -0.01803 
 H                    0     2.46162  -0.24994  -0.58086 
 H                    0    -2.37348  -0.47125   0.8563 
 H                    0     0.24456   2.46238  -0.58333 
 H                    0     2.3736    0.46536   0.85544 
 H                    0    -0.25247  -2.45025  -0.57573 
 

 GradGradGradGradGradGradGradGradGradGradGradGradGradGradGradGradGradGrad
 Berny optimization.
 Initialization pass.
                           ----------------------------
                           !    Initial Parameters    !
                           ! (Angstroms and Degrees)  !
 --------------------------                            --------------------------
 ! Name  Definition              Value          Derivative Info.                !
 --------------------------------------------------------------------------------
 ! X1    R(1,-1)                 0.0014         Frozen                          !
 ! Y1    R(1,-2)                -0.0042         Frozen                          !
 ! Z1    R(1,-3)                -0.0181         Frozen                          !
 ! X2    R(2,-1)                 0.3586         Frozen                          !
 ! Y2    R(2,-2)                -1.8915         Frozen                          !
 ! Z2    R(2,-3)                -0.0184         Frozen                          !
 ! X4    R(4,-1)                -1.9075         Frozen                          !
 ! Y4    R(4,-2)                -0.3618         Frozen                          !
 ! Z4    R(4,-3)                -0.0183         Frozen                          !
 ! X6    R(6,-1)                -0.3622         Frozen                          !
 ! Y6    R(6,-2)                 1.9075         Frozen                          !
 ! Z6    R(6,-3)                -0.0178         Frozen                          !
 ! X8    R(8,-1)                 1.905          Frozen                          !
 ! Y8    R(8,-2)                 0.3579         Frozen                          !
 ! Z8    R(8,-3)                -0.018          Frozen                          !
 ! R1    R(2,3)                  0.9971         estimate D2E/DX2                !
 ! R2    R(2,13)                 0.9981         estimate D2E/DX2                !
 ! R3    R(4,5)                  0.998          estimate D2E/DX2                !
 ! R4    R(4,10)                 0.997          estimate D2E/DX2                !
 ! R5    R(6,7)                  0.997          estimate D2E/DX2                !
 ! R6    R(6,11)                 0.9979         estimate D2E/DX2                !
 ! R7    R(8,9)                  0.998          estimate D2E/DX2                !
 ! R8    R(8,12)                 0.997          estimate D2E/DX2                !
 ! A1    A(1,2,3)              118.9856         estimate D2E/DX2                !
 ! A2    A(1,2,13)             115.87           estimate D2E/DX2                !
 ! A3    A(3,2,13)             107.3323         estimate D2E/DX2                !
 ! A4    A(1,4,5)              115.5938         estimate D2E/DX2                !
 ! A5    A(1,4,10)             118.6521         estimate D2E/DX2                !
 ! A6    A(5,4,10)             107.2978         estimate D2E/DX2                !
 ! A7    A(1,6,7)              118.6754         estimate D2E/DX2                !
 ! A8    A(1,6,11)             115.6254         estimate D2E/DX2                !
 ! A9    A(7,6,11)             107.2764         estimate D2E/DX2                !
 ! A10   A(1,8,9)              115.7204         estimate D2E/DX2                !
 ! A11   A(1,8,12)             118.8078         estimate D2E/DX2                !
 ! A12   A(9,8,12)             107.3135         estimate D2E/DX2                !
 ! D1    D(4,1,2,3)            -91.9822         estimate D2E/DX2                !
 ! D2    D(4,1,2,13)            38.3444         estimate D2E/DX2                !
 ! D3    D(8,1,2,3)             88.019          estimate D2E/DX2                !
 ! D4    D(8,1,2,13)          -141.6543         estimate D2E/DX2                !
 ! D5    D(3,2,6,7)             -2.6574         estimate D2E/DX2                !
 ! D6    D(3,2,6,11)           126.9902         estimate D2E/DX2                !
 ! D7    D(13,2,6,7)           127.6467         estimate D2E/DX2                !
 ! D8    D(13,2,6,11)         -102.7058         estimate D2E/DX2                !
 ! D9    D(2,1,4,5)           -141.8165         estimate D2E/DX2                !
 ! D10   D(2,1,4,10)            88.5846         estimate D2E/DX2                !
 ! D11   D(6,1,4,5)             38.1837         estimate D2E/DX2                !
 ! D12   D(6,1,4,10)           -91.4152         estimate D2E/DX2                !
 ! D13   D(5,4,8,9)           -103.0698         estimate D2E/DX2                !
 ! D14   D(5,4,8,12)           126.9285         estimate D2E/DX2                !
 ! D15   D(10,4,8,9)           127.3989         estimate D2E/DX2                !
 ! D16   D(10,4,8,12)           -2.6028         estimate D2E/DX2                !
 ! D17   D(4,1,6,7)             89.3245         estimate D2E/DX2                !
 ! D18   D(4,1,6,11)          -141.0501         estimate D2E/DX2                !
 ! D19   D(8,1,6,7)            -90.6767         estimate D2E/DX2                !
 ! D20   D(8,1,6,11)            38.9487         estimate D2E/DX2                !
 ! D21   D(2,1,8,9)             38.7457         estimate D2E/DX2                !
 ! D22   D(2,1,8,12)           -91.187          estimate D2E/DX2                !
 ! D23   D(6,1,8,9)           -141.2545         estimate D2E/DX2                !
 ! D24   D(6,1,8,12)            88.8127         estimate D2E/DX2                !
 --------------------------------------------------------------------------------
 Trust Radius=3.00D-01 FncErr=1.00D-07 GrdErr=1.00D-06
 Number of steps in this run=     69 maximum allowed number of steps=    100.
 GradGradGradGradGradGradGradGradGradGradGradGradGradGradGradGradGradGrad

                          Input orientation:                          
 ---------------------------------------------------------------------
 Center     Atomic      Atomic             Coordinates (Angstroms)
 Number     Number       Type             X           Y           Z
 ---------------------------------------------------------------------
      1         29           0        0.001404   -0.004228   -0.018147
      2          8           0        0.358586   -1.891462   -0.018450
      3          1           0        0.478034   -2.360738    0.853123
      4          8           0       -1.907543   -0.361837   -0.018304
      5          1           0       -2.461530    0.254260   -0.574629
      6          8           0       -0.362239    1.907537   -0.017831
      7          1           0       -0.461806    2.375420    0.856871
      8          8           0        1.905042    0.357935   -0.018031
      9          1           0        2.461620   -0.249943   -0.580865
     10          1           0       -2.373484   -0.471251    0.856296
     11          1           0        0.244560    2.462376   -0.583334
     12          1           0        2.373604    0.465360    0.855441
     13          1           0       -0.252468   -2.450253   -0.575729
 ---------------------------------------------------------------------
                    Distance matrix (angstroms):
                    1          2          3          4          5
     1  Cu   0.000000
     2  O    1.920737   0.000000
     3  H    2.557230   0.997059   0.000000
     4  O    1.942154   2.734062   3.232022   0.000000
     5  H    2.538214   3.586993   4.185419   0.997986   0.000000
     6  O    1.946043   3.866780   4.436529   2.745546   2.729537
     7  H    2.577391   4.432325   4.828509   3.216934   3.247677
     8  O    1.937783   2.729709   3.191620   3.879933   4.403124
     9  H    2.535684   2.726471   3.232087   4.406652   4.948906
    10  H    2.573490   3.200997   3.420720   0.996994   1.606757
    11  H    2.542184   4.391811   5.037891   3.595413   3.492675
    12  H    2.571187   3.221582   3.402942   4.447011   5.046602
    13  H    2.521584   0.998095   1.607254   2.722403   3.492041
                    6          7          8          9         10
     6  O    0.000000
     7  H    0.996960   0.000000
     8  O    2.746240   3.230738   0.000000
     9  H    3.598042   4.184021   0.998036   0.000000
    10  H    3.235404   3.429001   4.444973   5.049023   0.000000
    11  H    0.997921   1.606457   2.739606   3.503146   4.187226
    12  H    3.213615   3.418755   0.997017   1.606977   4.838604
    13  H    4.394728   5.038182   3.584940   3.493947   3.235097
                   11         12         13
    11  H    0.000000
    12  H    3.254378   0.000000
    13  H    4.937714   4.176757   0.000000
 Stoichiometry    CuH8O4(3+)
 Framework group  C1[X(CuH8O4)]
 Deg. of freedom    33
 Full point group                 C1      NOp   1
 Largest Abelian subgroup         C1      NOp   1
 Largest concise Abelian subgroup C1      NOp   1
                         Standard orientation:                         
 ---------------------------------------------------------------------
 Center     Atomic      Atomic             Coordinates (Angstroms)
 Number     Number       Type             X           Y           Z
 ---------------------------------------------------------------------
      1         29           0        0.001404   -0.004228   -0.018147
      2          8           0        0.358586   -1.891462   -0.018450
      3          1           0        0.478034   -2.360738    0.853123
      4          8           0       -1.907543   -0.361837   -0.018304
      5          1           0       -2.461530    0.254261   -0.574629
      6          8           0       -0.362239    1.907537   -0.017831
      7          1           0       -0.461806    2.375420    0.856871
      8          8           0        1.905042    0.357934   -0.018031
      9          1           0        2.461620   -0.249943   -0.580865
     10          1           0       -2.373484   -0.471251    0.856296
     11          1           0        0.244561    2.462376   -0.583334
     12          1           0        2.373604    0.465359    0.855441
     13          1           0       -0.252468   -2.450253   -0.575729
 ---------------------------------------------------------------------
 Rotational constants (GHZ):      3.4162295      3.3946361      1.7538859
 Standard basis: CC-pVTZ (5D, 7F)
 There are   344 symmetry adapted cartesian basis functions of A   symmetry.
 There are   300 symmetry adapted basis functions of A   symmetry.
   300 basis functions,   696 primitive gaussians,   344 cartesian basis functions
    33 alpha electrons       33 beta electrons
       nuclear repulsion energy       436.2421620294 Hartrees.
 NAtoms=   13 NActive=   13 NUniq=   13 SFac= 1.00D+00 NAtFMM=   60 NAOKFM=F Big=F
 Integral buffers will be    131072 words long.
 Raffenetti 2 integral format.
 Two-electron integral symmetry is turned on.
 Standard density basis: def2TZV (5D, 7F)
   110 Density fitting functions
 There are   110 symmetry adapted density basis functions of A   symmetry.
 One-electron integrals computed using PRISM.
 NBasis=   300 RedAO= T EigKep=  1.19D-03  NBF=   300
 NBsUse=   300 1.00D-06 EigRej= -1.00D+00 NBFU=   300
 NBasis=      300 NBas6D=      344 NTT=       45150   NTT6D=    59340
 NDBShl=       68 NDBF=        110 NDBF6D=      113  NNucDB=        0
 IDenFi=        2 ISolve=        0 FullAP=F BlkAPC=T NucTyp=        0
 TolInv= 1.00D-06 TolIt=  1.00D-10 IR12=0.
 FoFCou: FMM=F IPFlag=           0 FMFlag=           0 FMFlg1=           0
         NFxFlg=           0 DoJE=F BraDBF=T KetDBF=T FulRan=T
         wScrn=  0.000000 ICntrl=     600 IOpCl=  3 I1Cent=           6 NGrid=           0
         NMat0=    1 NMatS0=    113 NMatT0=    0 NMatD0=    1 NMtDS0=    0 NMtDT0=    0
 Petite list used in FoFCou.
 DBF EigKep=  7.97D-04 EigRej= -1.00D+00
 NDBF=    110  NBFD=   110
 NRank=   110 NBFDU=   110
 S*AI*S=  8.58894591536    
 ExpMin= 3.63D-02 ExpMax= 5.43D+06 ExpMxC= 6.17D+03 IAcc=3 IRadAn=         5 AccDes= 0.00D+00
 Harris functional with IExCor= 1009 and IRadAn=       5 diagonalized for initial guess.
 HarFok:  IExCor= 1009 AccDes= 0.00D+00 IRadAn=         5 IDoV= 1 UseB2=F ITyADJ=14
 ICtDFT=  3500011 ScaDFX=  1.000000  1.000000  1.000000  1.000000
 FoFCou: FMM=F IPFlag=           0 FMFlag=      100000 FMFlg1=           0
         NFxFlg=           0 DoJE=T BraDBF=F KetDBF=T FulRan=T
         wScrn=  0.000000 ICntrl=     500 IOpCl=  0 I1Cent=   200000004 NGrid=           0
         NMat0=    1 NMatS0=      1 NMatT0=    0 NMatD0=    1 NMtDS0=    0 NMtDT0=    0
 Petite list used in FoFCou.
 Requested convergence on RMS density matrix=1.00D-08 within 128 cycles.
 Requested convergence on MAX density matrix=1.00D-06.
 Requested convergence on             energy=1.00D-06.
 No special actions if energy rises.
 FoFCou: FMM=F IPFlag=           0 FMFlag=      100000 FMFlg1=           0
         NFxFlg=           0 DoJE=T BraDBF=T KetDBF=F FulRan=T
         wScrn=  0.000000 ICntrl=     500 IOpCl=  0 I1Cent=           5 NGrid=           0
         NMat0=    1 NMatS0=      1 NMatT0=    0 NMatD0=    1 NMtDS0=    0 NMtDT0=    0
 Symmetry not used in FoFCou.
 EnCoef did   100 forward-backward iterations
 EnCoef did   100 forward-backward iterations
 EnCoef did   100 forward-backward iterations
 EnCoef did   100 forward-backward iterations
 EnCoef did   100 forward-backward iterations
 EnCoef did     3 forward-backward iterations
 EnCoef did     4 forward-backward iterations
 SCF Done:  E(RPBE-PBE) =  -1945.43048736     A.U. after   19 cycles
            NFock= 19  Conv=0.90D-08     -V/T= 2.0023

 **********************************************************************

            Population analysis using the SCF density.

 **********************************************************************

 Orbital symmetries:
       Occupied  (A) (A) (A) (A) (A) (A) (A) (A) (A) (A) (A) (A)
                 (A) (A) (A) (A) (A) (A) (A) (A) (A) (A) (A) (A)
                 (A) (A) (A) (A) (A) (A) (A) (A) (A)
       Virtual   (A) (A) (A) (A) (A) (A) (A) (A) (A) (A) (A) (A)
                 (A) (A) (A) (A) (A) (A) (A) (A) (A) (A) (A) (A)
                 (A) (A) (A) (A) (A) (A) (A) (A) (A) (A) (A) (A)
                 (A) (A) (A) (A) (A) (A) (A) (A) (A) (A) (A) (A)
                 (A) (A) (A) (A) (A) (A) (A) (A) (A) (A) (A) (A)
                 (A) (A) (A) (A) (A) (A) (A) (A) (A) (A) (A) (A)
                 (A) (A) (A) (A) (A) (A) (A) (A) (A) (A) (A) (A)
                 (A) (A) (A) (A) (A) (A) (A) (A) (A) (A) (A) (A)
                 (A) (A) (A) (A) (A) (A) (A) (A) (A) (A) (A) (A)
                 (A) (A) (A) (A) (A) (A) (A) (A) (A) (A) (A) (A)
                 (A) (A) (A) (A) (A) (A) (A) (A) (A) (A) (A) (A)
                 (A) (A) (A) (A) (A) (A) (A) (A) (A) (A) (A) (A)
                 (A) (A) (A) (A) (A) (A) (A) (A) (A) (A) (A) (A)
                 (A) (A) (A) (A) (A) (A) (A) (A) (A) (A) (A) (A)
                 (A) (A) (A) (A) (A) (A) (A) (A) (A) (A) (A) (A)
                 (A) (A) (A) (A) (A) (A) (A) (A) (A) (A) (A) (A)
                 (A) (A) (A) (A) (A) (A) (A) (A) (A) (A) (A) (A)
                 (A) (A) (A) (A) (A) (A) (A) (A) (A) (A) (A) (A)
                 (A) (A) (A) (A) (A) (A) (A) (A) (A) (A) (A) (A)
                 (A) (A) (A) (A) (A) (A) (A) (A) (A) (A) (A) (A)
                 (A) (A) (A) (A) (A) (A) (A) (A) (A) (A) (A) (A)
                 (A) (A) (A) (A) (A) (A) (A) (A) (A) (A) (A) (A)
                 (A) (A) (A)
 The electronic state is 1-A.
 Alpha  occ. eigenvalues -- -322.22638 -39.33379 -34.64740 -34.64717 -34.61864
 Alpha  occ. eigenvalues --  -19.42016 -19.41958 -19.41917 -19.41869  -4.96106
 Alpha  occ. eigenvalues --   -3.47805  -3.47775  -3.43517  -1.57105  -1.56208
 Alpha  occ. eigenvalues --   -1.56169  -1.55758  -1.10748  -1.10617  -1.10533
 Alpha  occ. eigenvalues --   -1.10474  -1.07071  -1.06669  -1.02066  -1.02007
 Alpha  occ. eigenvalues --   -1.01404  -0.96422  -0.96394  -0.93702  -0.93112
 Alpha  occ. eigenvalues --   -0.90844  -0.90793  -0.90395
 Alpha virt. eigenvalues --   -0.84992  -0.60366  -0.55379  -0.51783  -0.51773
 Alpha virt. eigenvalues --   -0.47554  -0.46196  -0.44490  -0.43570  -0.43544
 Alpha virt. eigenvalues --   -0.43011  -0.34053  -0.32639  -0.32551  -0.27916
 Alpha virt. eigenvalues --   -0.27774  -0.27718  -0.25701  -0.25676  -0.21614
 Alpha virt. eigenvalues --   -0.20300  -0.15595  -0.15312  -0.15298  -0.11835
 Alpha virt. eigenvalues --   -0.09538  -0.09503  -0.09378  -0.07329  -0.07064
 Alpha virt. eigenvalues --   -0.01783  -0.00549  -0.00523   0.02844   0.03796
 Alpha virt. eigenvalues --    0.05408   0.05749   0.05797   0.10498   0.10731
 Alpha virt. eigenvalues --    0.11298   0.12046   0.12067   0.14071   0.17753
 Alpha virt. eigenvalues --    0.17796   0.27869   0.28069   0.28212   0.29285
 Alpha virt. eigenvalues --    0.31402   0.33807   0.33915   0.40259   0.40386
 Alpha virt. eigenvalues --    0.40453   0.41359   0.43043   0.45618   0.52505
 Alpha virt. eigenvalues --    0.52557   0.60403   0.63392   0.68129   0.69681
 Alpha virt. eigenvalues --    0.69730   0.72508   0.73860   0.74086   0.74113
 Alpha virt. eigenvalues --    0.83088   0.85558   0.85765   0.87598   1.08402
 Alpha virt. eigenvalues --    1.08757   1.08891   1.10798   1.10990   1.11274
 Alpha virt. eigenvalues --    1.15311   1.19435   1.23096   1.26263   1.26527
 Alpha virt. eigenvalues --    1.32302   1.35806   1.35890   1.37958   1.39328
 Alpha virt. eigenvalues --    1.41762   1.47422   1.47722   1.47825   1.49749
 Alpha virt. eigenvalues --    1.49935   1.57230   1.58252   1.70797   1.78355
 Alpha virt. eigenvalues --    1.78479   1.79879   1.90238   1.94993   2.01666
 Alpha virt. eigenvalues --    2.01796   2.04502   2.42727   2.43329   2.43358
 Alpha virt. eigenvalues --    2.51636   2.51691   2.53838   2.56169   2.56473
 Alpha virt. eigenvalues --    2.59948   2.62995   2.63121   2.64071   2.65033
 Alpha virt. eigenvalues --    2.65292   2.65334   2.65515   2.69536   2.69644
 Alpha virt. eigenvalues --    2.74644   2.74671   2.77065   2.78953   2.79096
 Alpha virt. eigenvalues --    2.79367   2.80806   2.81720   2.81794   2.81901
 Alpha virt. eigenvalues --    2.83528   2.92458   2.92573   2.97930   2.99433
 Alpha virt. eigenvalues --    3.01449   3.01501   3.02311   3.04057   3.04093
 Alpha virt. eigenvalues --    3.05635   3.05885   3.06429   3.06478   3.13371
 Alpha virt. eigenvalues --    3.13528   3.16803   3.17463   3.17658   3.22538
 Alpha virt. eigenvalues --    3.29093   3.29148   3.32296   3.33219   3.36106
 Alpha virt. eigenvalues --    3.36131   3.37811   3.44214   3.46910   3.47069
 Alpha virt. eigenvalues --    3.47938   3.53960   3.54184   3.55082   3.55165
 Alpha virt. eigenvalues --    3.57902   3.58367   3.59491   3.59540   3.61877
 Alpha virt. eigenvalues --    3.69677   3.82422   3.82983   3.83091   3.83535
 Alpha virt. eigenvalues --    3.89779   3.89914   4.01299   4.05139   4.11661
 Alpha virt. eigenvalues --    4.11688   4.18871   4.29089   4.32149   4.32209
 Alpha virt. eigenvalues --    4.41502   4.42840   4.42874   4.44695   4.81019
 Alpha virt. eigenvalues --    4.81662   4.86130   4.86262   5.22089   5.22824
 Alpha virt. eigenvalues --    5.22847   5.24610   5.58077   5.59695   5.60093
 Alpha virt. eigenvalues --    5.60234   5.60296   5.60431   5.61431   5.61454
 Alpha virt. eigenvalues --    5.74472   5.74540   5.74729   5.76072   5.81587
 Alpha virt. eigenvalues --    5.81998   5.83433   5.83442   5.88420   5.91621
 Alpha virt. eigenvalues --    5.91768   5.94459   5.96470   5.96874   5.96890
 Alpha virt. eigenvalues --    6.01672   6.15568   6.15846   6.18231   6.20309
 Alpha virt. eigenvalues --    6.26269   6.26338   6.27118   6.33098   6.44524
 Alpha virt. eigenvalues --    6.44546   6.46249   6.48811   6.86262   6.89228
 Alpha virt. eigenvalues --    6.91648   6.91735   7.21325   7.21722   7.30603
 Alpha virt. eigenvalues --    7.46019   8.19583  11.42011  11.42483  11.44251
 Alpha virt. eigenvalues --   11.80347  12.57398  12.60632  12.60721  12.64854
 Alpha virt. eigenvalues --   12.64988  12.75605  12.76409  12.76413  12.76718
 Alpha virt. eigenvalues --   12.77207  12.79729  12.79737  12.80893  12.80942
 Alpha virt. eigenvalues --   12.81361  12.81934
     Molecular Orbital Coefficients:
                           1         2         3         4         5
                           O         O         O         O         O
     Eigenvalues --  -322.22638 -39.33379 -34.64740 -34.64717 -34.61864
   1 1   Cu 1S          1.00066  -0.30848   0.00000  -0.00000  -0.00005
   2        2S         -0.00220   1.04842  -0.00001   0.00001   0.00018
   3        3S         -0.00011  -0.00216   0.00000  -0.00000   0.00001
   4        4S          0.00083   0.00032   0.00003  -0.00001  -0.00012
   5        5S         -0.00085  -0.00075   0.00002   0.00000   0.00002
   6        6S          0.00015  -0.00061   0.00001   0.00000  -0.00001
   7        7S         -0.00021  -0.00019  -0.00000   0.00000   0.00001
   8        8PX        -0.00000  -0.00001  -0.08598   0.99709  -0.00059
   9        8PY        -0.00000   0.00001   0.99709   0.08598   0.00171
  10        8PZ        -0.00000  -0.00019  -0.00176   0.00044   1.00087
  11        9PX         0.00000   0.00000  -0.00043   0.00537  -0.00000
  12        9PY        -0.00000  -0.00001   0.00538   0.00042   0.00001
  13        9PZ         0.00001   0.00001  -0.00001   0.00000   0.00432
  14       10PX         0.00000  -0.00000   0.00005   0.00149   0.00000
  15       10PY         0.00000   0.00001   0.00148  -0.00005   0.00000
  16       10PZ         0.00001   0.00001  -0.00000   0.00000   0.00134
  17       11PX        -0.00000  -0.00000   0.00030  -0.00413   0.00000
  18       11PY         0.00000   0.00000  -0.00415  -0.00029  -0.00001
  19       11PZ        -0.00001  -0.00001   0.00001  -0.00000  -0.00321
  20       12PX         0.00000   0.00000  -0.00049   0.00598  -0.00000
  21       12PY        -0.00000  -0.00001   0.00599   0.00049   0.00001
  22       12PZ         0.00001  -0.00000  -0.00001   0.00000   0.00533
  23       13PX         0.00000   0.00000  -0.00005  -0.00027   0.00000
  24       13PY        -0.00000  -0.00000  -0.00027   0.00005  -0.00000
  25       13PZ        -0.00000  -0.00001   0.00000  -0.00000  -0.00032
  26       14D 0       -0.00002   0.00035   0.00000  -0.00000   0.00002
  27       14D+1        0.00000  -0.00000  -0.00000   0.00001   0.00000
  28       14D-1        0.00000   0.00000   0.00001   0.00000  -0.00000
  29       14D+2       -0.00000   0.00000   0.00001   0.00000   0.00000
  30       14D-2       -0.00000   0.00000   0.00000  -0.00000  -0.00000
  31       15D 0        0.00004  -0.00019  -0.00001   0.00000  -0.00002
  32       15D+1       -0.00000   0.00000   0.00001  -0.00001  -0.00000
  33       15D-1        0.00000  -0.00000  -0.00001  -0.00001   0.00000
  34       15D+2        0.00000  -0.00000  -0.00001  -0.00000  -0.00000
  35       15D-2        0.00000  -0.00000  -0.00000   0.00000   0.00000
  36       16D 0        0.00000  -0.00065  -0.00000   0.00000  -0.00001
  37       16D+1       -0.00000   0.00000   0.00000  -0.00001  -0.00000
  38       16D-1       -0.00000  -0.00000  -0.00001  -0.00000   0.00000
  39       16D+2        0.00000  -0.00000  -0.00000  -0.00000  -0.00000
  40       16D-2        0.00000  -0.00000  -0.00000   0.00000   0.00000
  41       17D 0        0.00002   0.00025  -0.00001   0.00000   0.00005
  42       17D+1        0.00000   0.00000  -0.00002  -0.00005  -0.00000
  43       17D-1        0.00000   0.00000  -0.00005   0.00002   0.00000
  44       17D+2        0.00000   0.00001  -0.00003  -0.00000  -0.00000
  45       17D-2        0.00000   0.00000  -0.00001  -0.00000  -0.00000
  46       18F 0        0.00000  -0.00000   0.00000  -0.00000  -0.00021
  47       18F+1       -0.00000  -0.00000   0.00001  -0.00014   0.00000
  48       18F-1        0.00000   0.00000  -0.00014  -0.00001  -0.00000
  49       18F+2       -0.00000  -0.00000   0.00000   0.00000  -0.00000
  50       18F-2        0.00000   0.00000   0.00000  -0.00000  -0.00000
  51       18F+3       -0.00000  -0.00000  -0.00003  -0.00012   0.00000
  52       18F-3        0.00000  -0.00000   0.00012  -0.00003   0.00000
  53       19F 0       -0.00000   0.00000  -0.00000   0.00000   0.00005
  54       19F+1        0.00000   0.00000  -0.00000   0.00006  -0.00000
  55       19F-1       -0.00000  -0.00000   0.00006   0.00000   0.00000
  56       19F+2        0.00000  -0.00000  -0.00000   0.00000   0.00000
  57       19F-2       -0.00000  -0.00000  -0.00000   0.00000   0.00000
  58       19F+3        0.00000   0.00000  -0.00002  -0.00001   0.00000
  59       19F-3       -0.00000  -0.00000   0.00001  -0.00002   0.00000
  60       20G 0       -0.00000  -0.00001   0.00000  -0.00000  -0.00000
  61       20G+1       -0.00000   0.00000   0.00000  -0.00000  -0.00000
  62       20G-1       -0.00000  -0.00000  -0.00000  -0.00000  -0.00000
  63       20G+2       -0.00000  -0.00000   0.00000  -0.00000  -0.00000
  64       20G-2       -0.00000  -0.00000   0.00000  -0.00000   0.00000
  65       20G+3        0.00000   0.00000  -0.00000  -0.00000   0.00000
  66       20G-3        0.00000  -0.00000   0.00000  -0.00000  -0.00000
  67       20G+4       -0.00000  -0.00006   0.00000  -0.00000   0.00000
  68       20G-4       -0.00000  -0.00002   0.00000  -0.00000  -0.00000
  69 2   O  1S          0.00000  -0.00000  -0.00001   0.00001   0.00000
  70        2S          0.00002  -0.00003  -0.00003   0.00003   0.00000
  71        3S         -0.00001  -0.00000   0.00006  -0.00002   0.00000
  72        4S          0.00015   0.00037  -0.00086   0.00032  -0.00004
  73        5PX         0.00000   0.00000  -0.00001  -0.00001  -0.00000
  74        5PY        -0.00000   0.00000   0.00002   0.00000  -0.00000
  75        5PZ        -0.00000  -0.00000   0.00001   0.00000  -0.00001
  76        6PX        -0.00001  -0.00002   0.00005  -0.00000   0.00001
  77        6PY        -0.00001  -0.00003   0.00008  -0.00004   0.00001
  78        6PZ         0.00000   0.00001  -0.00010  -0.00001   0.00003
  79        7PX        -0.00006  -0.00008   0.00014  -0.00021   0.00005
  80        7PY         0.00001   0.00009  -0.00024  -0.00027   0.00008
  81        7PZ        -0.00001   0.00001  -0.00022   0.00000   0.00002
  82        8D 0        0.00000   0.00000  -0.00002   0.00001  -0.00000
  83        8D+1       -0.00000  -0.00000   0.00001   0.00000   0.00001
  84        8D-1       -0.00000  -0.00000   0.00001  -0.00000  -0.00002
  85        8D+2        0.00001   0.00000  -0.00004   0.00002   0.00000
  86        8D-2        0.00000   0.00000  -0.00002  -0.00002  -0.00000
  87        9D 0       -0.00000   0.00000   0.00002  -0.00003   0.00003
  88        9D+1        0.00002   0.00002  -0.00007  -0.00001  -0.00003
  89        9D-1        0.00000   0.00000   0.00002   0.00002   0.00007
  90        9D+2       -0.00002  -0.00002   0.00017  -0.00009  -0.00000
  91        9D-2       -0.00000   0.00000   0.00008   0.00011   0.00000
  92       10F 0        0.00000   0.00000  -0.00001   0.00000  -0.00000
  93       10F+1       -0.00000  -0.00000  -0.00001  -0.00001  -0.00000
  94       10F-1       -0.00000  -0.00000   0.00004  -0.00000   0.00000
  95       10F+2       -0.00000  -0.00000   0.00001   0.00001   0.00000
  96       10F-2       -0.00000  -0.00000   0.00000  -0.00000  -0.00000
  97       10F+3        0.00000   0.00000  -0.00002  -0.00000   0.00001
  98       10F-3       -0.00000  -0.00000   0.00004  -0.00002   0.00000
  99 3   H  1S          0.00001   0.00001  -0.00005   0.00002   0.00003
 100        2S         -0.00007  -0.00011   0.00061  -0.00017  -0.00004
 101        3S          0.00001   0.00003   0.00000   0.00000   0.00002
 102        4PX        -0.00000  -0.00000   0.00002   0.00001   0.00000
 103        4PY         0.00000   0.00000  -0.00003   0.00000   0.00001
 104        4PZ         0.00001   0.00001  -0.00005  -0.00000  -0.00001
 105        5PX         0.00002   0.00002  -0.00008   0.00006   0.00000
 106        5PY        -0.00003  -0.00005   0.00029   0.00001  -0.00009
 107        5PZ         0.00002   0.00004  -0.00020   0.00007  -0.00001
 108        6D 0       -0.00000  -0.00000   0.00003  -0.00001   0.00002
 109        6D+1       -0.00000  -0.00000   0.00000  -0.00002  -0.00000
 110        6D-1        0.00000   0.00001  -0.00005  -0.00001   0.00002
 111        6D+2        0.00000   0.00000  -0.00004   0.00000   0.00002
 112        6D-2        0.00000   0.00000  -0.00001   0.00000   0.00001
 113 4   O  1S          0.00000  -0.00000  -0.00001  -0.00001   0.00000
 114        2S          0.00002  -0.00002  -0.00003  -0.00004   0.00000
 115        3S         -0.00001  -0.00000   0.00002   0.00006   0.00000
 116        4S          0.00015   0.00035  -0.00030  -0.00079  -0.00004
 117        5PX        -0.00000   0.00000  -0.00000   0.00002  -0.00000
 118        5PY        -0.00000  -0.00000  -0.00001   0.00001   0.00000
 119        5PZ        -0.00000  -0.00000  -0.00000   0.00001  -0.00001
 120        6PX        -0.00001  -0.00003   0.00004   0.00008   0.00001
 121        6PY         0.00001   0.00002  -0.00000  -0.00005  -0.00001
 122        6PZ         0.00000   0.00001   0.00001  -0.00010   0.00003
 123        7PX         0.00001   0.00009   0.00027  -0.00020   0.00008
 124        7PY         0.00005   0.00008  -0.00020  -0.00013  -0.00004
 125        7PZ        -0.00001   0.00001   0.00000  -0.00021   0.00001
 126        8D 0        0.00000   0.00000  -0.00001  -0.00002  -0.00000
 127        8D+1       -0.00000  -0.00000   0.00000   0.00000  -0.00002
 128        8D-1        0.00000   0.00000   0.00000  -0.00001  -0.00001
 129        8D+2       -0.00001  -0.00000   0.00002   0.00004  -0.00000
 130        8D-2       -0.00000  -0.00000  -0.00002   0.00002   0.00000
 131        9D 0       -0.00000   0.00000   0.00003   0.00002   0.00003
 132        9D+1        0.00000   0.00000  -0.00002   0.00003   0.00007
 133        9D-1       -0.00001  -0.00002  -0.00001   0.00007   0.00003
 134        9D+2        0.00002   0.00002  -0.00008  -0.00017   0.00000
 135        9D-2        0.00000  -0.00000   0.00011  -0.00008  -0.00000
 136       10F 0        0.00000   0.00000  -0.00000  -0.00001  -0.00000
 137       10F+1       -0.00000  -0.00000   0.00000   0.00004   0.00000
 138       10F-1        0.00000   0.00000  -0.00001   0.00001   0.00000
 139       10F+2        0.00000   0.00000   0.00001  -0.00001  -0.00000
 140       10F-2        0.00000   0.00000  -0.00000  -0.00000   0.00000
 141       10F+3        0.00000   0.00000  -0.00002  -0.00004  -0.00000
 142       10F-3        0.00000   0.00000  -0.00000  -0.00002   0.00001
 143 5   H  1S          0.00001   0.00001   0.00000  -0.00005  -0.00002
 144        2S         -0.00011  -0.00014   0.00031   0.00032   0.00011
 145        3S          0.00001   0.00003   0.00001  -0.00008  -0.00002
 146        4PX         0.00000  -0.00000   0.00001  -0.00003  -0.00000
 147        4PY         0.00001   0.00001  -0.00001  -0.00003   0.00001
 148        4PZ        -0.00000  -0.00000   0.00001   0.00001   0.00001
 149        5PX        -0.00004  -0.00005  -0.00002   0.00020   0.00005
 150        5PY         0.00002   0.00002  -0.00010  -0.00002  -0.00001
 151        5PZ        -0.00002  -0.00003   0.00011   0.00007   0.00002
 152        6D 0        0.00000   0.00000   0.00002  -0.00002   0.00000
 153        6D+1       -0.00000  -0.00001  -0.00000   0.00001   0.00000
 154        6D-1        0.00001   0.00000  -0.00003  -0.00002  -0.00000
 155        6D+2       -0.00000  -0.00000  -0.00003   0.00002   0.00002
 156        6D-2        0.00000   0.00001  -0.00000  -0.00001  -0.00000
 157 6   O  1S          0.00000  -0.00000   0.00001  -0.00001   0.00000
 158        2S          0.00002  -0.00002   0.00004  -0.00003   0.00000
 159        3S         -0.00001  -0.00000  -0.00006   0.00002   0.00000
 160        4S          0.00015   0.00035   0.00075  -0.00031  -0.00004
 161        5PX        -0.00000  -0.00000  -0.00001  -0.00001   0.00000
 162        5PY         0.00000  -0.00000   0.00002   0.00000   0.00000
 163        5PZ        -0.00000  -0.00000  -0.00001  -0.00000  -0.00001
 164        6PX         0.00001   0.00002   0.00005  -0.00000  -0.00001
 165        6PY         0.00001   0.00003   0.00008  -0.00004  -0.00001
 166        6PZ         0.00000   0.00001   0.00010   0.00001   0.00003
 167        7PX         0.00005   0.00008   0.00013  -0.00020  -0.00004
 168        7PY        -0.00001  -0.00009  -0.00018  -0.00027  -0.00007
 169        7PZ        -0.00001   0.00001   0.00021   0.00000   0.00001
 170        8D 0        0.00000   0.00000   0.00002  -0.00001  -0.00000
 171        8D+1        0.00000   0.00000   0.00001   0.00000  -0.00001
 172        8D-1        0.00000   0.00000   0.00000  -0.00000   0.00002
 173        8D+2        0.00001   0.00000   0.00004  -0.00002   0.00000
 174        8D-2        0.00000   0.00000   0.00002   0.00002  -0.00000
 175        9D 0       -0.00000   0.00000  -0.00002   0.00003   0.00003
 176        9D+1       -0.00001  -0.00002  -0.00006  -0.00001   0.00003
 177        9D-1       -0.00000  -0.00000   0.00002   0.00002  -0.00007
 178        9D+2       -0.00002  -0.00002  -0.00017   0.00008  -0.00000
 179        9D-2       -0.00000   0.00000  -0.00008  -0.00010   0.00000
 180       10F 0        0.00000   0.00000   0.00001  -0.00000  -0.00000
 181       10F+1        0.00000   0.00000  -0.00001  -0.00001   0.00000
 182       10F-1        0.00000   0.00000   0.00004  -0.00000  -0.00000
 183       10F+2       -0.00000  -0.00000  -0.00001  -0.00001   0.00000
 184       10F-2       -0.00000  -0.00000  -0.00000   0.00000  -0.00000
 185       10F+3       -0.00000  -0.00000  -0.00002   0.00000  -0.00001
 186       10F-3        0.00000   0.00000   0.00004  -0.00002  -0.00000
 187 7   H  1S          0.00001   0.00001   0.00005  -0.00002   0.00003
 188        2S         -0.00007  -0.00011  -0.00059   0.00017  -0.00003
 189        3S          0.00001   0.00003  -0.00001  -0.00000   0.00003
 190        4PX         0.00000   0.00000   0.00002   0.00001  -0.00000
 191        4PY        -0.00000  -0.00000  -0.00003   0.00000  -0.00001
 192        4PZ         0.00000   0.00001   0.00004   0.00000  -0.00001
 193        5PX        -0.00002  -0.00002  -0.00007   0.00006  -0.00000
 194        5PY         0.00003   0.00005   0.00028   0.00001   0.00008
 195        5PZ         0.00002   0.00004   0.00020  -0.00007  -0.00001
 196        6D 0       -0.00000  -0.00000  -0.00004   0.00001   0.00002
 197        6D+1        0.00000   0.00000   0.00000  -0.00002   0.00000
 198        6D-1       -0.00000  -0.00001  -0.00004  -0.00001  -0.00001
 199        6D+2        0.00000   0.00000   0.00004  -0.00000   0.00002
 200        6D-2        0.00000   0.00000   0.00001  -0.00000   0.00001
 201 8   O  1S          0.00000  -0.00000   0.00001   0.00001   0.00000
 202        2S          0.00002  -0.00002   0.00003   0.00003   0.00001
 203        3S         -0.00001  -0.00000  -0.00002  -0.00006   0.00000
 204        4S          0.00015   0.00035   0.00033   0.00081  -0.00004
 205        5PX         0.00000  -0.00000  -0.00000   0.00002   0.00000
 206        5PY         0.00000   0.00000  -0.00001   0.00001  -0.00000
 207        5PZ        -0.00000  -0.00000   0.00000  -0.00001  -0.00001
 208        6PX         0.00001   0.00003   0.00004   0.00008  -0.00001
 209        6PY        -0.00001  -0.00002  -0.00000  -0.00005   0.00001
 210        6PZ         0.00000   0.00001  -0.00001   0.00010   0.00003
 211        7PX        -0.00001  -0.00009   0.00027  -0.00020  -0.00007
 212        7PY        -0.00005  -0.00008  -0.00021  -0.00014   0.00005
 213        7PZ        -0.00001   0.00001   0.00000   0.00021   0.00001
 214        8D 0        0.00000   0.00000   0.00001   0.00002  -0.00000
 215        8D+1        0.00000   0.00000   0.00000   0.00000   0.00002
 216        8D-1       -0.00000  -0.00000   0.00000  -0.00001   0.00001
 217        8D+2       -0.00001  -0.00000  -0.00002  -0.00004  -0.00000
 218        8D-2       -0.00000  -0.00000   0.00002  -0.00002   0.00000
 219        9D 0       -0.00000   0.00000  -0.00003  -0.00002   0.00003
 220        9D+1       -0.00000  -0.00000  -0.00002   0.00003  -0.00007
 221        9D-1        0.00002   0.00002  -0.00001   0.00007  -0.00003
 222        9D+2        0.00002   0.00002   0.00009   0.00017   0.00000
 223        9D-2        0.00000  -0.00000  -0.00011   0.00008  -0.00000
 224       10F 0        0.00000   0.00000   0.00000   0.00001  -0.00000
 225       10F+1        0.00000   0.00000   0.00000   0.00004  -0.00000
 226       10F-1       -0.00000  -0.00000  -0.00001   0.00001  -0.00000
 227       10F+2        0.00000   0.00000  -0.00001   0.00001  -0.00000
 228       10F-2        0.00000   0.00000   0.00000   0.00000   0.00000
 229       10F+3       -0.00000  -0.00000  -0.00002  -0.00004   0.00000
 230       10F-3       -0.00000  -0.00000  -0.00000  -0.00002  -0.00001
 231 9   H  1S          0.00001   0.00001  -0.00000   0.00005  -0.00002
 232        2S         -0.00011  -0.00014  -0.00032  -0.00032   0.00012
 233        3S          0.00001   0.00003  -0.00001   0.00008  -0.00002
 234        4PX        -0.00000   0.00000   0.00001  -0.00003   0.00000
 235        4PY        -0.00001  -0.00001  -0.00001  -0.00003  -0.00001
 236        4PZ        -0.00000  -0.00000  -0.00001  -0.00001   0.00001
 237        5PX         0.00004   0.00005  -0.00002   0.00020  -0.00005
 238        5PY        -0.00002  -0.00002  -0.00010  -0.00002   0.00001
 239        5PZ        -0.00002  -0.00003  -0.00011  -0.00007   0.00002
 240        6D 0        0.00000   0.00000  -0.00002   0.00002   0.00000
 241        6D+1        0.00000   0.00001  -0.00000   0.00001  -0.00000
 242        6D-1       -0.00001  -0.00000  -0.00003  -0.00002   0.00000
 243        6D+2       -0.00000  -0.00000   0.00003  -0.00002   0.00002
 244        6D-2        0.00000   0.00001   0.00000   0.00001  -0.00000
 245 10  H  1S          0.00001   0.00001  -0.00002  -0.00005   0.00003
 246        2S         -0.00007  -0.00011   0.00016   0.00060  -0.00003
 247        3S          0.00001   0.00002  -0.00000   0.00001   0.00003
 248        4PX         0.00000   0.00000  -0.00000  -0.00003   0.00001
 249        4PY         0.00000   0.00000   0.00001  -0.00002  -0.00000
 250        4PZ         0.00000   0.00001   0.00000  -0.00004  -0.00001
 251        5PX        -0.00003  -0.00005  -0.00001   0.00028  -0.00009
 252        5PY        -0.00002  -0.00002   0.00006   0.00008  -0.00000
 253        5PZ         0.00002   0.00004  -0.00006  -0.00020  -0.00001
 254        6D 0       -0.00000  -0.00000   0.00001   0.00004   0.00002
 255        6D+1        0.00000   0.00001   0.00001  -0.00004   0.00002
 256        6D-1        0.00000   0.00000  -0.00002  -0.00000   0.00000
 257        6D+2       -0.00000  -0.00000   0.00000   0.00004  -0.00002
 258        6D-2       -0.00000  -0.00000   0.00000   0.00001  -0.00001
 259 11  H  1S          0.00001   0.00001   0.00005   0.00000  -0.00002
 260        2S         -0.00011  -0.00014  -0.00032   0.00031   0.00011
 261        3S          0.00001   0.00003   0.00007   0.00001  -0.00002
 262        4PX         0.00001   0.00001   0.00003  -0.00001   0.00001
 263        4PY        -0.00000   0.00000  -0.00003  -0.00001   0.00000
 264        4PZ        -0.00000  -0.00000  -0.00001   0.00001   0.00001
 265        5PX         0.00002   0.00002   0.00002  -0.00010  -0.00001
 266        5PY         0.00004   0.00005   0.00020   0.00002  -0.00005
 267        5PZ        -0.00002  -0.00003  -0.00007   0.00011   0.00002
 268        6D 0        0.00000   0.00000   0.00002   0.00002   0.00000
 269        6D+1        0.00001   0.00000   0.00002  -0.00003  -0.00000
 270        6D-1        0.00000   0.00001   0.00001   0.00000  -0.00000
 271        6D+2        0.00000   0.00000   0.00002   0.00003  -0.00002
 272        6D-2       -0.00000  -0.00001  -0.00001   0.00000   0.00000
 273 12  H  1S          0.00001   0.00001   0.00002   0.00005   0.00003
 274        2S         -0.00006  -0.00011  -0.00018  -0.00060  -0.00003
 275        3S          0.00001   0.00003   0.00000  -0.00000   0.00003
 276        4PX        -0.00000  -0.00000  -0.00000  -0.00003  -0.00001
 277        4PY        -0.00000  -0.00000   0.00001  -0.00002   0.00000
 278        4PZ         0.00000   0.00001  -0.00000   0.00004  -0.00001
 279        5PX         0.00003   0.00005  -0.00001   0.00028   0.00009
 280        5PY         0.00002   0.00002   0.00006   0.00008   0.00000
 281        5PZ         0.00002   0.00004   0.00007   0.00020  -0.00001
 282        6D 0       -0.00000  -0.00000  -0.00001  -0.00004   0.00002
 283        6D+1       -0.00000  -0.00001   0.00001  -0.00004  -0.00001
 284        6D-1       -0.00000  -0.00000  -0.00002  -0.00000  -0.00000
 285        6D+2       -0.00000  -0.00000  -0.00000  -0.00004  -0.00002
 286        6D-2       -0.00000  -0.00000  -0.00000  -0.00001  -0.00001
 287 13  H  1S          0.00001   0.00001  -0.00004  -0.00000  -0.00002
 288        2S         -0.00011  -0.00014   0.00032  -0.00032   0.00012
 289        3S          0.00001   0.00003  -0.00008  -0.00001  -0.00002
 290        4PX        -0.00001  -0.00001   0.00003  -0.00001  -0.00001
 291        4PY         0.00000  -0.00000  -0.00002  -0.00001  -0.00000
 292        4PZ        -0.00000  -0.00000   0.00001  -0.00002   0.00001
 293        5PX        -0.00002  -0.00002   0.00002  -0.00010   0.00001
 294        5PY        -0.00004  -0.00005   0.00021   0.00002   0.00005
 295        5PZ        -0.00002  -0.00003   0.00007  -0.00011   0.00002
 296        6D 0        0.00000   0.00000  -0.00002  -0.00002   0.00000
 297        6D+1       -0.00001  -0.00000   0.00002  -0.00003   0.00000
 298        6D-1       -0.00000  -0.00001   0.00001   0.00000   0.00000
 299        6D+2        0.00000   0.00000  -0.00002  -0.00003  -0.00002
 300        6D-2       -0.00000  -0.00001   0.00001  -0.00001   0.00000
                           6         7         8         9        10
                           O         O         O         O         O
     Eigenvalues --   -19.42016 -19.41958 -19.41917 -19.41869  -4.96106
   1 1   Cu 1S          0.00000   0.00000   0.00000   0.00000   0.11564
   2        2S         -0.00002  -0.00001  -0.00001  -0.00001  -0.44623
   3        3S          0.00016   0.00016   0.00015   0.00015   0.49939
   4        4S          0.00107   0.00101   0.00100   0.00100   0.00167
   5        5S         -0.00040  -0.00040  -0.00040  -0.00040   0.00632
   6        6S         -0.00020  -0.00020  -0.00020  -0.00019   0.69608
   7        7S         -0.00003  -0.00002  -0.00002  -0.00002  -0.00057
   8        8PX        -0.00000  -0.00001   0.00001   0.00000   0.00001
   9        8PY         0.00001  -0.00000   0.00000  -0.00001  -0.00002
  10        8PZ        -0.00000  -0.00000  -0.00000  -0.00000   0.00011
  11        9PX         0.00001  -0.00013   0.00012  -0.00002  -0.00003
  12        9PY         0.00018   0.00002  -0.00002  -0.00010   0.00001
  13        9PZ         0.00000   0.00000   0.00000   0.00000  -0.00094
  14       10PX         0.00010   0.00004  -0.00003  -0.00009  -0.00000
  15       10PY        -0.00006   0.00010  -0.00008   0.00002   0.00001
  16       10PZ         0.00000   0.00001   0.00001   0.00001   0.00010
  17       11PX        -0.00007  -0.00008   0.00009   0.00008  -0.00001
  18       11PY         0.00004  -0.00008   0.00008  -0.00011   0.00004
  19       11PZ        -0.00001  -0.00001  -0.00001  -0.00001   0.00017
  20       12PX         0.00001  -0.00012   0.00011  -0.00002   0.00001
  21       12PY         0.00016   0.00001  -0.00002  -0.00010  -0.00004
  22       12PZ         0.00000   0.00000   0.00000   0.00000  -0.00053
  23       13PX         0.00003   0.00011  -0.00011  -0.00003   0.00000
  24       13PY        -0.00011   0.00003  -0.00003   0.00011  -0.00001
  25       13PZ         0.00000  -0.00000  -0.00000  -0.00000  -0.00004
  26       14D 0        0.00005   0.00005   0.00005   0.00005  -0.00446
  27       14D+1        0.00001   0.00000  -0.00000  -0.00001   0.00001
  28       14D-1       -0.00000   0.00001  -0.00001   0.00000  -0.00001
  29       14D+2        0.00007  -0.00006  -0.00006   0.00005  -0.00003
  30       14D-2        0.00003  -0.00003  -0.00002   0.00002  -0.00001
  31       15D 0       -0.00004  -0.00003  -0.00003  -0.00003   0.00140
  32       15D+1       -0.00003   0.00000  -0.00000   0.00003   0.00000
  33       15D-1       -0.00000  -0.00003   0.00003   0.00000   0.00000
  34       15D+2        0.00003  -0.00005  -0.00005   0.00006   0.00001
  35       15D-2       -0.00000  -0.00000  -0.00001   0.00001   0.00000
  36       16D 0       -0.00002  -0.00002  -0.00002  -0.00002  -0.00405
  37       16D+1       -0.00000  -0.00000   0.00000   0.00000   0.00000
  38       16D-1        0.00000  -0.00000   0.00000  -0.00000  -0.00001
  39       16D+2       -0.00002   0.00002   0.00002  -0.00002  -0.00002
  40       16D-2       -0.00001   0.00001   0.00001  -0.00001  -0.00000
  41       17D 0       -0.00025  -0.00024  -0.00024  -0.00024  -0.00143
  42       17D+1       -0.00000  -0.00009   0.00010   0.00001   0.00000
  43       17D-1        0.00010  -0.00001   0.00001  -0.00009  -0.00000
  44       17D+2       -0.00080   0.00079   0.00079  -0.00079   0.00003
  45       17D-2       -0.00032   0.00031   0.00032  -0.00032   0.00001
  46       18F 0       -0.00000  -0.00000  -0.00000  -0.00000  -0.00001
  47       18F+1        0.00000   0.00001  -0.00001  -0.00000  -0.00000
  48       18F-1       -0.00001   0.00000  -0.00000   0.00001  -0.00000
  49       18F+2       -0.00000   0.00000   0.00000  -0.00000  -0.00000
  50       18F-2       -0.00000   0.00000   0.00000  -0.00000   0.00000
  51       18F+3        0.00001  -0.00001   0.00001  -0.00001  -0.00000
  52       18F-3       -0.00001  -0.00001   0.00001   0.00001  -0.00000
  53       19F 0        0.00000   0.00000   0.00000   0.00000   0.00000
  54       19F+1       -0.00001  -0.00003   0.00003   0.00001  -0.00000
  55       19F-1        0.00004  -0.00001   0.00001  -0.00003   0.00000
  56       19F+2        0.00001  -0.00001  -0.00001   0.00001   0.00000
  57       19F-2        0.00000  -0.00000  -0.00000   0.00000  -0.00000
  58       19F+3       -0.00003   0.00002  -0.00002   0.00002  -0.00000
  59       19F-3        0.00003   0.00002  -0.00002  -0.00002   0.00000
  60       20G 0        0.00000   0.00000   0.00000   0.00000  -0.00022
  61       20G+1        0.00000   0.00000  -0.00000  -0.00000   0.00000
  62       20G-1       -0.00000   0.00000  -0.00000   0.00000  -0.00000
  63       20G+2        0.00000  -0.00000  -0.00000   0.00000  -0.00000
  64       20G-2        0.00000  -0.00000  -0.00000   0.00000  -0.00000
  65       20G+3       -0.00000  -0.00000   0.00000   0.00000   0.00000
  66       20G-3       -0.00000   0.00000  -0.00000   0.00000  -0.00000
  67       20G+4        0.00000   0.00000   0.00000   0.00000  -0.00110
  68       20G-4        0.00000   0.00000   0.00000   0.00000  -0.00042
  69 2   O  1S          0.97331   0.00030   0.00020  -0.00020  -0.00005
  70        2S         -0.00758   0.00005   0.00004   0.00015   0.00033
  71        3S          0.05097  -0.00001  -0.00001  -0.00002  -0.00009
  72        4S          0.00615   0.00031   0.00000  -0.00116   0.00011
  73        5PX        -0.00091  -0.00000   0.00001  -0.00000   0.00000
  74        5PY        -0.00017  -0.00002  -0.00001  -0.00001  -0.00000
  75        5PZ         0.00050   0.00001   0.00001   0.00001   0.00001
  76        6PX        -0.00021  -0.00003  -0.00007   0.00002  -0.00014
  77        6PY        -0.00164   0.00008   0.00005   0.00007   0.00017
  78        6PZ         0.00030  -0.00013  -0.00006  -0.00004  -0.00005
  79        7PX        -0.00069  -0.00043   0.00006   0.00014  -0.00024
  80        7PY        -0.00139  -0.00016   0.00018  -0.00032  -0.00023
  81        7PZ         0.00069  -0.00043  -0.00008  -0.00017  -0.00023
  82        8D 0        0.00013  -0.00001  -0.00001  -0.00000   0.00005
  83        8D+1        0.00012  -0.00000  -0.00000   0.00000   0.00000
  84        8D-1       -0.00008  -0.00000   0.00000   0.00000  -0.00000
  85        8D+2        0.00003   0.00000   0.00001  -0.00002   0.00009
  86        8D-2        0.00018   0.00001  -0.00000  -0.00000   0.00004
  87        9D 0        0.00050  -0.00002   0.00001  -0.00001  -0.00036
  88        9D+1        0.00052   0.00003   0.00002  -0.00003   0.00004
  89        9D-1       -0.00006   0.00008   0.00002   0.00002   0.00002
  90        9D+2        0.00002  -0.00001  -0.00003   0.00008  -0.00058
  91        9D-2        0.00019  -0.00000   0.00000   0.00001  -0.00022
  92       10F 0        0.00015  -0.00000   0.00000  -0.00001  -0.00003
  93       10F+1       -0.00000  -0.00001  -0.00000  -0.00000   0.00003
  94       10F-1       -0.00022   0.00001   0.00000   0.00001  -0.00011
  95       10F+2       -0.00006  -0.00000   0.00000   0.00000  -0.00000
  96       10F-2       -0.00021  -0.00000  -0.00000   0.00001   0.00000
  97       10F+3        0.00001   0.00001  -0.00000  -0.00000   0.00010
  98       10F-3       -0.00005  -0.00001  -0.00001   0.00001  -0.00013
  99 3   H  1S          0.00035  -0.00004  -0.00002  -0.00001   0.00008
 100        2S         -0.00372   0.00038   0.00017   0.00036  -0.00006
 101        3S         -0.00040   0.00004   0.00006  -0.00000  -0.00003
 102        4PX        -0.00000  -0.00002   0.00001   0.00000  -0.00002
 103        4PY        -0.00022  -0.00001  -0.00000   0.00000   0.00010
 104        4PZ         0.00038  -0.00002   0.00000  -0.00002   0.00001
 105        5PX         0.00026   0.00006  -0.00005  -0.00004   0.00005
 106        5PY        -0.00103   0.00018   0.00003   0.00010  -0.00008
 107        5PZ         0.00175  -0.00012  -0.00010  -0.00012   0.00011
 108        6D 0       -0.00075   0.00002   0.00002   0.00002  -0.00008
 109        6D+1       -0.00012   0.00001   0.00001   0.00000   0.00001
 110        6D-1        0.00091  -0.00003  -0.00001  -0.00002  -0.00005
 111        6D+2        0.00025  -0.00002  -0.00000  -0.00000   0.00003
 112        6D-2        0.00013   0.00000  -0.00001  -0.00000   0.00001
 113 4   O  1S         -0.00017   0.00082   0.97331   0.00045  -0.00004
 114        2S          0.00005   0.00014  -0.00759   0.00004   0.00032
 115        3S         -0.00004   0.00004   0.05097   0.00000  -0.00008
 116        4S          0.00031  -0.00114   0.00625  -0.00000  -0.00002
 117        5PX        -0.00002  -0.00001  -0.00016  -0.00001  -0.00000
 118        5PY        -0.00000   0.00001   0.00093  -0.00001  -0.00000
 119        5PZ         0.00001   0.00001   0.00050   0.00001   0.00001
 120        6PX         0.00008   0.00007  -0.00164   0.00005   0.00014
 121        6PY         0.00003  -0.00003   0.00023   0.00006   0.00012
 122        6PZ        -0.00013  -0.00004   0.00031  -0.00006  -0.00006
 123        7PX        -0.00015  -0.00032  -0.00134   0.00018  -0.00028
 124        7PY         0.00041  -0.00014   0.00072  -0.00007   0.00021
 125        7PZ        -0.00041  -0.00016   0.00070  -0.00008  -0.00023
 126        8D 0       -0.00001  -0.00000   0.00013  -0.00001   0.00006
 127        8D+1       -0.00000   0.00000  -0.00008   0.00000  -0.00000
 128        8D-1        0.00000  -0.00000  -0.00012   0.00000  -0.00000
 129        8D+2       -0.00000   0.00002  -0.00003  -0.00001  -0.00009
 130        8D-2       -0.00001   0.00000  -0.00018   0.00000  -0.00004
 131        9D 0       -0.00002  -0.00001   0.00050   0.00001  -0.00034
 132        9D+1        0.00008   0.00002  -0.00006   0.00002   0.00002
 133        9D-1       -0.00003   0.00003  -0.00052  -0.00002  -0.00003
 134        9D+2        0.00001  -0.00008  -0.00001   0.00003   0.00054
 135        9D-2        0.00000  -0.00000  -0.00019   0.00000   0.00020
 136       10F 0       -0.00000  -0.00001   0.00016   0.00000  -0.00003
 137       10F+1        0.00001   0.00001  -0.00022   0.00000  -0.00010
 138       10F-1        0.00001   0.00000   0.00000   0.00000  -0.00002
 139       10F+2        0.00000  -0.00000   0.00006  -0.00000   0.00000
 140       10F-2        0.00000  -0.00001   0.00021   0.00000  -0.00001
 141       10F+3        0.00001  -0.00001   0.00005   0.00001   0.00012
 142       10F-3        0.00001  -0.00000   0.00001  -0.00000   0.00010
 143 5   H  1S          0.00005  -0.00000   0.00031  -0.00000   0.00014
 144        2S         -0.00061   0.00020  -0.00331   0.00003  -0.00061
 145        3S         -0.00007  -0.00003  -0.00028  -0.00008  -0.00017
 146        4PX        -0.00000   0.00000  -0.00025   0.00001   0.00011
 147        4PY         0.00001  -0.00001   0.00029   0.00002   0.00003
 148        4PZ         0.00000   0.00000  -0.00019   0.00000  -0.00001
 149        5PX        -0.00015   0.00007  -0.00105  -0.00006  -0.00034
 150        5PY         0.00014  -0.00003   0.00112  -0.00000   0.00017
 151        5PZ        -0.00011   0.00007  -0.00101  -0.00001  -0.00018
 152        6D 0        0.00001   0.00000   0.00015   0.00001   0.00003
 153        6D+1       -0.00001   0.00001  -0.00063  -0.00001  -0.00002
 154        6D-1        0.00001  -0.00001   0.00065   0.00001   0.00010
 155        6D+2        0.00001  -0.00001   0.00009  -0.00000   0.00001
 156        6D-2        0.00002  -0.00001   0.00072   0.00002  -0.00001
 157 6   O  1S          0.00026  -0.00023  -0.00043   0.97331  -0.00004
 158        2S          0.00015   0.00004   0.00005  -0.00759   0.00031
 159        3S          0.00001  -0.00003  -0.00005   0.05097  -0.00008
 160        4S         -0.00117  -0.00002   0.00032   0.00629   0.00000
 161        5PX         0.00000  -0.00001  -0.00000   0.00093  -0.00000
 162        5PY         0.00001   0.00001   0.00002   0.00017   0.00000
 163        5PZ         0.00001   0.00000   0.00001   0.00049   0.00001
 164        6PX        -0.00003   0.00006   0.00003   0.00023   0.00012
 165        6PY        -0.00008  -0.00006  -0.00008   0.00165  -0.00013
 166        6PZ        -0.00004  -0.00006  -0.00014   0.00030  -0.00005
 167        7PX        -0.00015  -0.00007   0.00042   0.00074   0.00020
 168        7PY         0.00032  -0.00018   0.00016   0.00135   0.00027
 169        7PZ        -0.00016  -0.00008  -0.00042   0.00068  -0.00022
 170        8D 0       -0.00001  -0.00001  -0.00001   0.00013   0.00006
 171        8D+1       -0.00000   0.00000   0.00000  -0.00012  -0.00000
 172        8D-1       -0.00000  -0.00000   0.00000   0.00008  -0.00000
 173        8D+2       -0.00002   0.00001   0.00000   0.00003   0.00009
 174        8D-2       -0.00000  -0.00000   0.00001   0.00019   0.00004
 175        9D 0       -0.00001   0.00001  -0.00002   0.00051  -0.00034
 176        9D+1        0.00003  -0.00001  -0.00003  -0.00051  -0.00003
 177        9D-1       -0.00001  -0.00001  -0.00008   0.00005  -0.00002
 178        9D+2        0.00009  -0.00003  -0.00001   0.00000  -0.00054
 179        9D-2        0.00000  -0.00000   0.00000   0.00019  -0.00020
 180       10F 0       -0.00001   0.00000  -0.00000   0.00016  -0.00003
 181       10F+1        0.00000   0.00000   0.00001   0.00001  -0.00003
 182       10F-1       -0.00001  -0.00000  -0.00001   0.00023   0.00010
 183       10F+2        0.00000   0.00000  -0.00000  -0.00006  -0.00000
 184       10F-2        0.00001  -0.00000  -0.00000  -0.00020   0.00000
 185       10F+3        0.00001   0.00000  -0.00001  -0.00002  -0.00010
 186       10F-3       -0.00001   0.00001   0.00001   0.00005   0.00012
 187 7   H  1S         -0.00001  -0.00002  -0.00003   0.00035   0.00007
 188        2S          0.00036   0.00017   0.00037  -0.00374  -0.00004
 189        3S         -0.00000   0.00006   0.00004  -0.00040  -0.00003
 190        4PX        -0.00000  -0.00001   0.00002   0.00001   0.00002
 191        4PY        -0.00000   0.00000   0.00001   0.00021  -0.00010
 192        4PZ        -0.00002   0.00000  -0.00002   0.00039   0.00001
 193        5PX         0.00004   0.00005  -0.00006  -0.00022  -0.00005
 194        5PY        -0.00010  -0.00003  -0.00018   0.00105   0.00006
 195        5PZ        -0.00012  -0.00010  -0.00012   0.00177   0.00011
 196        6D 0        0.00002   0.00002   0.00002  -0.00076  -0.00008
 197        6D+1       -0.00000  -0.00001  -0.00001   0.00008  -0.00001
 198        6D-1        0.00002   0.00001   0.00003  -0.00091   0.00005
 199        6D+2       -0.00000  -0.00000  -0.00002   0.00025   0.00003
 200        6D-2       -0.00000  -0.00001   0.00000   0.00011   0.00001
 201 8   O  1S         -0.00028   0.97331  -0.00076   0.00025  -0.00004
 202        2S          0.00005  -0.00759   0.00016   0.00004   0.00032
 203        3S         -0.00004   0.05097  -0.00005  -0.00001  -0.00008
 204        4S          0.00000   0.00625  -0.00115   0.00033   0.00000
 205        5PX         0.00001   0.00017   0.00001   0.00002   0.00000
 206        5PY         0.00001  -0.00092  -0.00000  -0.00000   0.00000
 207        5PZ         0.00001   0.00049   0.00000   0.00001   0.00001
 208        6PX        -0.00005   0.00165  -0.00008  -0.00008  -0.00014
 209        6PY        -0.00006  -0.00022   0.00002  -0.00003  -0.00012
 210        6PZ        -0.00006   0.00030  -0.00004  -0.00014  -0.00005
 211        7PX        -0.00018   0.00136   0.00032   0.00016   0.00028
 212        7PY         0.00006  -0.00072   0.00014  -0.00043  -0.00021
 213        7PZ        -0.00008   0.00069  -0.00016  -0.00043  -0.00022
 214        8D 0       -0.00001   0.00013  -0.00000  -0.00001   0.00006
 215        8D+1       -0.00000   0.00008  -0.00000   0.00000   0.00000
 216        8D-1       -0.00000   0.00012   0.00000  -0.00000   0.00000
 217        8D+2       -0.00001  -0.00003   0.00002  -0.00000  -0.00009
 218        8D-2        0.00000  -0.00018   0.00000  -0.00001  -0.00004
 219        9D 0        0.00001   0.00051  -0.00001  -0.00002  -0.00035
 220        9D+1       -0.00002   0.00005  -0.00002  -0.00008  -0.00002
 221        9D-1        0.00002   0.00052  -0.00003   0.00003   0.00003
 222        9D+2        0.00003  -0.00001  -0.00008   0.00001   0.00055
 223        9D-2       -0.00000  -0.00019  -0.00000  -0.00000   0.00021
 224       10F 0        0.00000   0.00016  -0.00001  -0.00000  -0.00003
 225       10F+1       -0.00000   0.00023  -0.00001  -0.00001   0.00011
 226       10F-1       -0.00000  -0.00001  -0.00000  -0.00001   0.00003
 227       10F+2       -0.00000   0.00006  -0.00000   0.00000   0.00000
 228       10F-2        0.00000   0.00020  -0.00001   0.00000  -0.00001
 229       10F+3       -0.00001  -0.00005   0.00001  -0.00001  -0.00013
 230       10F-3        0.00000  -0.00001   0.00000  -0.00001  -0.00010
 231 9   H  1S         -0.00000   0.00031  -0.00000   0.00005   0.00014
 232        2S          0.00002  -0.00332   0.00020  -0.00064  -0.00061
 233        3S         -0.00007  -0.00028  -0.00003  -0.00008  -0.00017
 234        4PX        -0.00001   0.00025  -0.00000   0.00000  -0.00011
 235        4PY        -0.00002  -0.00028   0.00001  -0.00001  -0.00003
 236        4PZ         0.00000  -0.00020   0.00000  -0.00000  -0.00001
 237        5PX         0.00007   0.00105  -0.00007   0.00016   0.00034
 238        5PY        -0.00000  -0.00111   0.00003  -0.00015  -0.00016
 239        5PZ        -0.00001  -0.00102   0.00007  -0.00012  -0.00018
 240        6D 0        0.00000   0.00013   0.00000   0.00001   0.00003
 241        6D+1        0.00001   0.00064  -0.00001   0.00002   0.00002
 242        6D-1       -0.00001  -0.00065   0.00001  -0.00001  -0.00010
 243        6D+2       -0.00000   0.00007  -0.00001   0.00001   0.00001
 244        6D-2        0.00002   0.00071  -0.00001   0.00002  -0.00001
 245 10  H  1S         -0.00003  -0.00001   0.00035  -0.00002   0.00007
 246        2S          0.00036   0.00036  -0.00374   0.00017  -0.00003
 247        3S          0.00004  -0.00000  -0.00040   0.00006  -0.00004
 248        4PX        -0.00001   0.00000  -0.00021  -0.00000   0.00010
 249        4PY         0.00002  -0.00000   0.00001  -0.00001   0.00002
 250        4PZ        -0.00002  -0.00002   0.00039   0.00000   0.00001
 251        5PX         0.00017   0.00010  -0.00104   0.00003  -0.00006
 252        5PY        -0.00006   0.00004  -0.00024   0.00005  -0.00005
 253        5PZ        -0.00012  -0.00012   0.00177  -0.00010   0.00010
 254        6D 0        0.00002   0.00002  -0.00077   0.00002  -0.00008
 255        6D+1       -0.00003  -0.00002   0.00090  -0.00001  -0.00005
 256        6D-1       -0.00001  -0.00000   0.00010  -0.00001  -0.00001
 257        6D+2        0.00002   0.00000  -0.00025   0.00000  -0.00003
 258        6D-2       -0.00000   0.00000  -0.00012   0.00001  -0.00001
 259 11  H  1S         -0.00000  -0.00000   0.00005   0.00031   0.00014
 260        2S          0.00021   0.00004  -0.00063  -0.00333  -0.00059
 261        3S         -0.00002  -0.00007  -0.00007  -0.00028  -0.00017
 262        4PX        -0.00002   0.00002   0.00001   0.00028   0.00003
 263        4PY         0.00000  -0.00001   0.00000   0.00025  -0.00011
 264        4PZ         0.00000   0.00000  -0.00000  -0.00020  -0.00001
 265        5PX        -0.00003  -0.00000   0.00015   0.00111   0.00016
 266        5PY        -0.00007   0.00006   0.00015   0.00105   0.00033
 267        5PZ         0.00008  -0.00000  -0.00012  -0.00103  -0.00018
 268        6D 0        0.00000   0.00000   0.00001   0.00013   0.00003
 269        6D+1       -0.00001   0.00001   0.00001   0.00066   0.00010
 270        6D-1       -0.00001   0.00001   0.00002   0.00064   0.00002
 271        6D+2        0.00001   0.00000  -0.00001  -0.00007  -0.00001
 272        6D-2        0.00001  -0.00001  -0.00002  -0.00071   0.00001
 273 12  H  1S         -0.00002   0.00035  -0.00001  -0.00003   0.00007
 274        2S          0.00016  -0.00374   0.00036   0.00038  -0.00004
 275        3S          0.00006  -0.00040  -0.00000   0.00004  -0.00004
 276        4PX         0.00000   0.00021  -0.00000   0.00001  -0.00010
 277        4PY         0.00001  -0.00001   0.00000  -0.00002  -0.00002
 278        4PZ         0.00001   0.00039  -0.00002  -0.00002   0.00001
 279        5PX        -0.00003   0.00104  -0.00010  -0.00018   0.00007
 280        5PY        -0.00005   0.00024  -0.00003   0.00006   0.00005
 281        5PZ        -0.00010   0.00176  -0.00012  -0.00012   0.00011
 282        6D 0        0.00001  -0.00076   0.00002   0.00002  -0.00008
 283        6D+1        0.00001  -0.00091   0.00002   0.00003   0.00005
 284        6D-1        0.00001  -0.00010   0.00000   0.00001   0.00001
 285        6D+2        0.00000  -0.00025   0.00000   0.00002  -0.00003
 286        6D-2        0.00001  -0.00012   0.00000  -0.00000  -0.00001
 287 13  H  1S          0.00031   0.00005  -0.00000   0.00000   0.00014
 288        2S         -0.00328  -0.00062   0.00002   0.00019  -0.00065
 289        3S         -0.00029  -0.00008  -0.00008  -0.00003  -0.00017
 290        4PX        -0.00028  -0.00001  -0.00002   0.00001  -0.00004
 291        4PY        -0.00025  -0.00000   0.00001   0.00000   0.00011
 292        4PZ        -0.00019   0.00000   0.00000   0.00000  -0.00001
 293        5PX        -0.00110  -0.00015  -0.00000   0.00003  -0.00016
 294        5PY        -0.00104  -0.00015  -0.00007   0.00007  -0.00036
 295        5PZ        -0.00100  -0.00011  -0.00001   0.00007  -0.00019
 296        6D 0        0.00014   0.00001   0.00001   0.00000   0.00003
 297        6D+1       -0.00064  -0.00001  -0.00001   0.00001  -0.00010
 298        6D-1       -0.00064  -0.00001  -0.00001   0.00001  -0.00002
 299        6D+2       -0.00007  -0.00001   0.00000   0.00001  -0.00001
 300        6D-2       -0.00071  -0.00002  -0.00002   0.00001   0.00001
                          11        12        13        14        15
                           O         O         O         O         O
     Eigenvalues --    -3.47805  -3.47775  -3.43517  -1.57105  -1.56208
   1 1   Cu 1S         -0.00000   0.00000   0.00006  -0.00479   0.00041
   2        2S          0.00001  -0.00001  -0.00027   0.01630  -0.00141
   3        3S          0.00002   0.00000   0.00040  -0.03911   0.00342
   4        4S          0.00018  -0.00004  -0.00013  -0.05325   0.00488
   5        5S         -0.00008   0.00003   0.00037   0.07316  -0.00706
   6        6S         -0.00004   0.00003   0.00014  -0.01107   0.00073
   7        7S         -0.00002   0.00000   0.00007   0.01585  -0.00158
   8        8PX         0.03866  -0.36721   0.00028   0.00064   0.00092
   9        8PY        -0.36721  -0.03866  -0.00064  -0.00177  -0.01363
  10        8PZ         0.00067  -0.00021  -0.36835   0.00030  -0.00003
  11        9PX        -0.13681   1.29868  -0.00101  -0.00376  -0.00571
  12        9PY         1.29869   0.13682   0.00227   0.01042   0.08486
  13        9PZ        -0.00236   0.00076   1.30682  -0.00230   0.00019
  14       10PX         0.00074  -0.00612   0.00001  -0.00109  -0.00294
  15       10PY        -0.00615  -0.00073  -0.00001   0.00268   0.02293
  16       10PZ         0.00001  -0.00000  -0.00474   0.00095  -0.00010
  17       11PX        -0.00553   0.05283  -0.00004   0.00187   0.00349
  18       11PY         0.05280   0.00553   0.00010  -0.00506  -0.04346
  19       11PZ        -0.00010   0.00003   0.05437   0.00080  -0.00005
  20       12PX        -0.03562   0.33772  -0.00026  -0.00159  -0.00251
  21       12PY         0.33773   0.03563   0.00059   0.00442   0.03758
  22       12PZ        -0.00062   0.00020   0.34211  -0.00119   0.00010
  23       13PX        -0.00016   0.00068   0.00000   0.00046   0.00239
  24       13PY         0.00068   0.00016   0.00000  -0.00059  -0.00609
  25       13PZ        -0.00000   0.00000   0.00093  -0.00017   0.00002
  26       14D 0       -0.00000   0.00000  -0.00022  -0.01099   0.00089
  27       14D+1        0.00002  -0.00018  -0.00001   0.00003   0.00008
  28       14D-1       -0.00018  -0.00002   0.00002  -0.00005  -0.00042
  29       14D+2       -0.00001  -0.00001   0.00000  -0.00071  -0.00406
  30       14D-2       -0.00001   0.00002  -0.00000  -0.00027  -0.00136
  31       15D 0        0.00002  -0.00000   0.00002  -0.01446   0.00130
  32       15D+1       -0.00001  -0.00000   0.00001   0.00005   0.00020
  33       15D-1       -0.00000   0.00001  -0.00002  -0.00006  -0.00045
  34       15D+2        0.00004   0.00001   0.00000  -0.00079  -0.00474
  35       15D-2        0.00001  -0.00001  -0.00000  -0.00028  -0.00158
  36       16D 0       -0.00000   0.00000  -0.00004  -0.01415   0.00121
  37       16D+1       -0.00000   0.00000  -0.00001   0.00004   0.00012
  38       16D-1        0.00000   0.00000   0.00001  -0.00007  -0.00056
  39       16D+2       -0.00001  -0.00001  -0.00000  -0.00086  -0.00509
  40       16D-2       -0.00001   0.00001   0.00000  -0.00032  -0.00169
  41       17D 0       -0.00004   0.00001   0.00003  -0.00176   0.00020
  42       17D+1        0.00004   0.00015  -0.00000  -0.00005  -0.00081
  43       17D-1        0.00015  -0.00004   0.00001  -0.00015  -0.00108
  44       17D+2       -0.00014  -0.00002  -0.00000   0.00017   0.00093
  45       17D-2       -0.00005  -0.00000   0.00000   0.00011   0.00093
  46       18F 0        0.00001  -0.00000  -0.00207   0.00001  -0.00000
  47       18F+1        0.00014  -0.00132   0.00000   0.00000  -0.00000
  48       18F-1       -0.00132  -0.00014  -0.00001  -0.00000  -0.00003
  49       18F+2        0.00000   0.00000  -0.00001   0.00000   0.00000
  50       18F-2        0.00000  -0.00001  -0.00000   0.00000   0.00000
  51       18F+3       -0.00030  -0.00116   0.00000  -0.00000  -0.00004
  52       18F-3        0.00115  -0.00031   0.00000   0.00001   0.00007
  53       19F 0        0.00001  -0.00000  -0.00177  -0.00011   0.00001
  54       19F+1        0.00011  -0.00108   0.00000  -0.00008  -0.00010
  55       19F-1       -0.00108  -0.00011  -0.00001   0.00023   0.00179
  56       19F+2        0.00000   0.00000  -0.00001  -0.00000  -0.00002
  57       19F-2        0.00000  -0.00001  -0.00000  -0.00000  -0.00002
  58       19F+3       -0.00029  -0.00114   0.00000  -0.00008  -0.00117
  59       19F-3        0.00112  -0.00029   0.00000   0.00032   0.00195
  60       20G 0       -0.00000   0.00000  -0.00000   0.00014  -0.00001
  61       20G+1        0.00000  -0.00000  -0.00000  -0.00000  -0.00000
  62       20G-1       -0.00000  -0.00000   0.00000   0.00000   0.00001
  63       20G+2       -0.00000  -0.00000   0.00000   0.00001   0.00003
  64       20G-2       -0.00000   0.00000  -0.00000   0.00000   0.00001
  65       20G+3        0.00000   0.00000  -0.00000  -0.00000  -0.00000
  66       20G-3       -0.00000   0.00000   0.00000   0.00000   0.00000
  67       20G+4       -0.00000  -0.00000  -0.00000   0.00011  -0.00001
  68       20G-4       -0.00000   0.00000   0.00000   0.00009  -0.00001
  69 2   O  1S          0.00073  -0.00005  -0.00000  -0.12282  -0.15349
  70        2S         -0.00091   0.00010  -0.00000   0.28176   0.35167
  71        3S         -0.00015   0.00000   0.00001   0.08601   0.10770
  72        4S         -0.00234   0.00016  -0.00004   0.17018   0.22122
  73        5PX         0.00014   0.00007   0.00000  -0.01861  -0.02366
  74        5PY        -0.00061   0.00007  -0.00000  -0.01583  -0.02346
  75        5PZ        -0.00001   0.00001   0.00009   0.01083   0.01379
  76        6PX         0.00025   0.00006  -0.00001  -0.02414  -0.03065
  77        6PY        -0.00091   0.00007   0.00001  -0.01588  -0.02568
  78        6PZ        -0.00001  -0.00005   0.00005   0.01304   0.01739
  79        7PX         0.00020   0.00008   0.00001  -0.00830  -0.01247
  80        7PY        -0.00088   0.00003  -0.00006   0.00691   0.01319
  81        7PZ         0.00018  -0.00020   0.00021   0.00347   0.00533
  82        8D 0       -0.00005   0.00000   0.00000   0.00091   0.00124
  83        8D+1       -0.00002   0.00000  -0.00000   0.00091   0.00112
  84        8D-1       -0.00001  -0.00000  -0.00001  -0.00052  -0.00069
  85        8D+2       -0.00005  -0.00001  -0.00000   0.00020   0.00035
  86        8D-2       -0.00002  -0.00001  -0.00000   0.00129   0.00167
  87        9D 0        0.00082  -0.00007  -0.00001  -0.00020   0.00062
  88        9D+1        0.00008  -0.00000  -0.00004   0.00247   0.00361
  89        9D-1        0.00005   0.00004   0.00022  -0.00114  -0.00163
  90        9D+2        0.00114  -0.00012   0.00000  -0.00338  -0.00441
  91        9D-2        0.00040   0.00020   0.00002   0.00183   0.00222
  92       10F 0        0.00006   0.00000  -0.00005   0.00069   0.00099
  93       10F+1       -0.00007  -0.00002  -0.00001   0.00011   0.00012
  94       10F-1        0.00025  -0.00002   0.00001  -0.00130  -0.00166
  95       10F+2       -0.00000   0.00000  -0.00005  -0.00055  -0.00074
  96       10F-2        0.00001  -0.00000  -0.00003  -0.00086  -0.00114
  97       10F+3       -0.00022  -0.00004   0.00001   0.00069   0.00087
  98       10F-3        0.00025  -0.00007  -0.00000  -0.00064  -0.00087
  99 3   H  1S         -0.00008   0.00001   0.00005   0.04795   0.06112
 100        2S         -0.00002   0.00015   0.00006   0.03889   0.04692
 101        3S         -0.00002   0.00003  -0.00016   0.00013   0.00090
 102        4PX         0.00000  -0.00000  -0.00001  -0.00144  -0.00189
 103        4PY        -0.00012   0.00001   0.00002   0.00400   0.00504
 104        4PZ        -0.00003  -0.00001  -0.00004  -0.00713  -0.00877
 105        5PX         0.00003   0.00006   0.00000  -0.00159  -0.00156
 106        5PY        -0.00016   0.00007   0.00003   0.00425   0.00321
 107        5PZ        -0.00020  -0.00003   0.00002  -0.00726  -0.00873
 108        6D 0        0.00019  -0.00000   0.00001   0.00112   0.00137
 109        6D+1        0.00000  -0.00002  -0.00000   0.00054   0.00064
 110        6D-1        0.00010  -0.00002   0.00001  -0.00169  -0.00177
 111        6D+2        0.00003  -0.00001   0.00001  -0.00049  -0.00049
 112        6D-2        0.00000   0.00002   0.00000  -0.00036  -0.00046
 113 4   O  1S          0.00005   0.00066  -0.00000  -0.09829   0.01720
 114        2S         -0.00009  -0.00079  -0.00000   0.22557  -0.03928
 115        3S         -0.00001  -0.00015   0.00000   0.06887  -0.01206
 116        4S         -0.00009  -0.00207  -0.00002   0.13475  -0.02526
 117        5PX        -0.00006  -0.00055  -0.00000  -0.01230   0.00317
 118        5PY         0.00006  -0.00012  -0.00000   0.01503  -0.00465
 119        5PZ        -0.00001  -0.00001   0.00009   0.00876  -0.00133
 120        6PX        -0.00006  -0.00077   0.00001  -0.01222   0.00338
 121        6PY         0.00006  -0.00022   0.00001   0.01945  -0.00574
 122        6PZ         0.00005  -0.00000   0.00004   0.01035  -0.00258
 123        7PX        -0.00003  -0.00082  -0.00007   0.00484   0.00043
 124        7PY         0.00010  -0.00018  -0.00001   0.00629  -0.00269
 125        7PZ         0.00018   0.00018   0.00022   0.00245  -0.00366
 126        8D 0       -0.00000  -0.00005   0.00000   0.00074  -0.00013
 127        8D+1        0.00000  -0.00001  -0.00000  -0.00042   0.00006
 128        8D-1        0.00000   0.00002   0.00000  -0.00072   0.00016
 129        8D+2       -0.00000   0.00006   0.00000  -0.00017   0.00012
 130        8D-2       -0.00001   0.00002   0.00000  -0.00106   0.00015
 131        9D 0        0.00007   0.00075  -0.00001  -0.00024  -0.00023
 132        9D+1       -0.00004   0.00004   0.00019  -0.00088   0.00060
 133        9D-1       -0.00000  -0.00008   0.00003  -0.00189   0.00009
 134        9D+2       -0.00010  -0.00104   0.00000   0.00257  -0.00062
 135        9D-2        0.00018  -0.00036  -0.00002  -0.00165  -0.00068
 136       10F 0       -0.00000   0.00006  -0.00004   0.00055  -0.00010
 137       10F+1        0.00002   0.00023   0.00001  -0.00103   0.00021
 138       10F-1       -0.00002   0.00007   0.00000  -0.00007   0.00009
 139       10F+2        0.00000   0.00000   0.00004   0.00045  -0.00008
 140       10F-2       -0.00000  -0.00001   0.00003   0.00067  -0.00010
 141       10F+3       -0.00006  -0.00023   0.00000   0.00051  -0.00007
 142       10F-3        0.00003  -0.00020   0.00001   0.00054  -0.00015
 143 5   H  1S          0.00002  -0.00012  -0.00003   0.03817  -0.00737
 144        2S          0.00022   0.00017  -0.00004   0.02981  -0.00821
 145        3S         -0.00004   0.00003   0.00012  -0.00048   0.00057
 146        4PX         0.00001  -0.00012  -0.00002   0.00376  -0.00071
[...]
   269. RY*(   4) H  12                  0.00011     0.80232   
   270. RY*(   5) H  12                  0.00005     1.37615   
   271. RY*(   6) H  12                  0.00001     2.61652   
   272. RY*(   7) H  12                  0.00000     3.60873   
   273. RY*(   8) H  12                  0.00000     2.50991   
   274. RY*(   9) H  12                  0.00000     2.85102   
   275. RY*(  10) H  12                  0.00000     3.61724   
   276. RY*(  11) H  12                  0.00000     3.16373   
   277. RY*(  12) H  12                  0.00000     2.88599   
   278. RY*(  13) H  12                  0.00000     3.74218   
   299. BD*(   1) O   8 - H   9          0.00610    -0.23328   
   300. BD*(   1) O   8 - H  12          0.00531    -0.23422   
       -------------------------------
              Total Lewis    9.54446  ( 99.7812%)
        Valence non-Lewis    0.01141  (  0.1193%)
        Rydberg non-Lewis    0.00952  (  0.0995%)
       -------------------------------
            Total unit  4    9.56539  (100.0000%)
           Charge unit  4    0.43461
 Calling FoFJK, ICntrl=      2527 FMM=F ISym2X=0 I1Cent= 4 IOpClX= 0 NMat=1 NMatS=1 NMatT=0.
 ***** Axes restored to original set *****
 -------------------------------------------------------------------
 Center     Atomic                   Forces (Hartrees/Bohr)
 Number     Number              X              Y              Z
 -------------------------------------------------------------------
      1       29          -0.000000000   -0.000000000   -0.000000000
      2        8          -0.000000000   -0.000000000   -0.000000000
      3        1           0.000006456    0.000016166    0.000010853
      4        8          -0.000000000   -0.000000000   -0.000000000
      5        1           0.000001833    0.000007036   -0.000008779
      6        8          -0.000000000   -0.000000000   -0.000000000
      7        1          -0.000001911   -0.000024588   -0.000032203
      8        8          -0.000000000   -0.000000000   -0.000000000
      9        1          -0.000024542    0.000002362    0.000001472
     10        1          -0.000007916   -0.000005803    0.000007069
     11        1          -0.000011075   -0.000000131   -0.000000515
     12        1          -0.000005371    0.000001759   -0.000001411
     13        1          -0.000014062    0.000005545   -0.000018975
 -------------------------------------------------------------------
 Cartesian Forces:  Max     0.000032203 RMS     0.000009737

 GradGradGradGradGradGradGradGradGradGradGradGradGradGradGradGradGradGrad
 Berny optimization.
 FormGI is forming the generalized inverse of G from B-inverse, IUseBI=4.
 Internal  Forces:  Max     0.000039602 RMS     0.000011656
 Search for a local minimum.
 Step number   1 out of a maximum of   69
 All quantities printed in internal units (Hartrees-Bohrs-Radians)
 Mixed Optimization -- En-DIIS/RFO-DIIS
 Second derivative matrix not updated -- first step.
 ITU=  0
     Eigenvalues ---    0.01115   0.01139   0.02873   0.02886   0.02899
     Eigenvalues ---    0.02903   0.02975   0.02978   0.16000   0.16000
     Eigenvalues ---    0.16000   0.16000   0.16000   0.16000   0.16000
     Eigenvalues ---    0.16000   0.48025   0.48035   0.48044   0.48056
     Eigenvalues ---    0.48209   0.48217   0.48221   0.482271000.00000
     Eigenvalues --- 1000.000001000.000001000.000001000.000001000.00000
     Eigenvalues --- 1000.000001000.000001000.000001000.000001000.00000
     Eigenvalues --- 1000.000001000.000001000.000001000.000001000.00000
     Eigenvalues --- 1000.000001000.000001000.000001000.000001000.00000
     Eigenvalues --- 1000.000001000.000001000.000001000.000001000.00000
     Eigenvalues --- 1000.000001000.000001000.000001000.000001000.00000
     Eigenvalues --- 1000.000001000.000001000.000001000.00000
 RFO step:  Lambda=-2.26997752D-08 EMin= 1.11501810D-02
 Linear search not attempted -- first point.
 Iteration  1 RMS(Cart)=  0.00007573 RMS(Int)=  0.00000001
 Iteration  2 RMS(Cart)=  0.00000001 RMS(Int)=  0.00000000
 Variable       Old X    -DE/DX   Delta X   Delta X   Delta X     New X
                                 (Linear)    (Quad)   (Total)
    X1        0.00265   0.00000   0.00000   0.00000   0.00000   0.00265
    Y1       -0.00799   0.00000   0.00000   0.00000   0.00000  -0.00799
    Z1       -0.03429  -0.00000   0.00000   0.00000   0.00000  -0.03429
    X2        0.67763  -0.00001   0.00000   0.00000  -0.00000   0.67763
    Y2       -3.57434   0.00002   0.00000   0.00000   0.00000  -3.57434
    Z2       -0.03486  -0.00000   0.00000   0.00000   0.00000  -0.03486
    X4       -3.60473  -0.00001   0.00000   0.00000   0.00000  -3.60473
    Y4       -0.68377   0.00000   0.00000   0.00000   0.00000  -0.68377
    Z4       -0.03459  -0.00001   0.00000   0.00000   0.00000  -0.03459
    X6       -0.68453  -0.00002   0.00000   0.00000   0.00000  -0.68453
    Y6        3.60472  -0.00003   0.00000   0.00000  -0.00000   3.60472
    Z6       -0.03370  -0.00003   0.00000   0.00000   0.00000  -0.03370
    X8        3.60001  -0.00003   0.00000   0.00000  -0.00000   3.60001
    Y8        0.67640  -0.00000   0.00000   0.00000  -0.00000   0.67640
    Z8       -0.03407  -0.00000   0.00000   0.00000   0.00000  -0.03407
    R1        1.88417   0.00000   0.00000   0.00001   0.00001   1.88417
    R2        1.88613   0.00002   0.00000   0.00003   0.00003   1.88616
    R3        1.88592   0.00001   0.00000   0.00002   0.00002   1.88594
    R4        1.88405   0.00001   0.00000   0.00002   0.00002   1.88407
    R5        1.88398  -0.00004   0.00000  -0.00008  -0.00008   1.88390
    R6        1.88580  -0.00001   0.00000  -0.00001  -0.00001   1.88578
    R7        1.88601  -0.00002   0.00000  -0.00003  -0.00003   1.88598
    R8        1.88409  -0.00000   0.00000  -0.00001  -0.00001   1.88408
    A1        2.07669  -0.00002   0.00000  -0.00012  -0.00012   2.07657
    A2        2.02231  -0.00001   0.00000  -0.00010  -0.00010   2.02221
    A3        1.87330   0.00002   0.00000   0.00014   0.00014   1.87344
    A4        2.01749  -0.00001   0.00000  -0.00006  -0.00006   2.01743
    A5        2.07087   0.00001   0.00000   0.00008   0.00008   2.07095
    A6        1.87270   0.00000   0.00000   0.00004   0.00004   1.87274
    A7        2.07128  -0.00001   0.00000  -0.00002  -0.00002   2.07125
    A8        2.01804   0.00001   0.00000   0.00010   0.00010   2.01815
    A9        1.87233   0.00000   0.00000   0.00006   0.00006   1.87239
   A10        2.01970  -0.00002   0.00000  -0.00017  -0.00017   2.01953
   A11        2.07359   0.00000   0.00000   0.00001   0.00001   2.07359
   A12        1.87297   0.00001   0.00000   0.00007   0.00007   1.87304
    D1       -1.60539  -0.00000   0.00000  -0.00001  -0.00001  -1.60541
    D2        0.66924  -0.00000   0.00000  -0.00003  -0.00003   0.66920
    D3        1.53622  -0.00000   0.00000  -0.00001  -0.00001   1.53621
    D4       -2.47233  -0.00000   0.00000  -0.00003  -0.00003  -2.47237
    D5       -0.04638  -0.00000   0.00000  -0.00010  -0.00010  -0.04648
    D6        2.21640   0.00001   0.00000   0.00009   0.00009   2.21649
    D7        2.22785  -0.00001   0.00000  -0.00012  -0.00012   2.22774
    D8       -1.79255   0.00000   0.00000   0.00007   0.00007  -1.79248
    D9       -2.47517   0.00000   0.00000   0.00002   0.00002  -2.47515
   D10        1.54609   0.00000   0.00000  -0.00005  -0.00005   1.54604
   D11        0.66643  -0.00000   0.00000   0.00002   0.00002   0.66645
   D12       -1.59550  -0.00000   0.00000  -0.00005  -0.00005  -1.59555
   D13       -1.79891   0.00000   0.00000  -0.00001  -0.00001  -1.79892
   D14        2.21532   0.00000   0.00000   0.00006   0.00006   2.21538
   D15        2.22353  -0.00000   0.00000  -0.00008  -0.00008   2.22345
   D16       -0.04543  -0.00000   0.00000  -0.00001  -0.00001  -0.04544
   D17        1.55901  -0.00000   0.00000  -0.00008  -0.00008   1.55892
   D18       -2.46179   0.00000   0.00000   0.00010   0.00010  -2.46168
   D19       -1.58261  -0.00000   0.00000  -0.00008  -0.00008  -1.58269
   D20        0.67978   0.00000   0.00000   0.00010   0.00010   0.67989
   D21        0.67624  -0.00000   0.00000  -0.00003  -0.00003   0.67621
   D22       -1.59151  -0.00000   0.00000   0.00004   0.00004  -1.59147
   D23       -2.46536   0.00000   0.00000  -0.00003  -0.00003  -2.46538
   D24        1.55007   0.00000   0.00000   0.00004   0.00004   1.55012
         Item               Value     Threshold  Converged?
 Maximum Force            0.000040     0.000450     YES
 RMS     Force            0.000010     0.000300     YES
 Maximum Displacement     0.000274     0.001800     YES
 RMS     Displacement     0.000076     0.001200     YES
 Predicted change in Energy=-1.134997D-08
 Optimization completed.
    -- Stationary point found.
                           ----------------------------
                           !   Optimized Parameters   !
                           ! (Angstroms and Degrees)  !
 --------------------------                            --------------------------
 ! Name  Definition              Value          Derivative Info.                !
 --------------------------------------------------------------------------------
 ! X1    R(1,-1)                 0.0014         -DE/DX =    0.0                 !
 ! Y1    R(1,-2)                -0.0042         -DE/DX =    0.0                 !
 ! Z1    R(1,-3)                -0.0181         -DE/DX =    0.0                 !
 ! X2    R(2,-1)                 0.3586         -DE/DX =    0.0                 !
 ! Y2    R(2,-2)                -1.8915         -DE/DX =    0.0                 !
 ! Z2    R(2,-3)                -0.0184         -DE/DX =    0.0                 !
 ! X4    R(4,-1)                -1.9075         -DE/DX =    0.0                 !
 ! Y4    R(4,-2)                -0.3618         -DE/DX =    0.0                 !
 ! Z4    R(4,-3)                -0.0183         -DE/DX =    0.0                 !
 ! X6    R(6,-1)                -0.3622         -DE/DX =    0.0                 !
 ! Y6    R(6,-2)                 1.9075         -DE/DX =    0.0                 !
 ! Z6    R(6,-3)                -0.0178         -DE/DX =    0.0                 !
 ! X8    R(8,-1)                 1.905          -DE/DX =    0.0                 !
 ! Y8    R(8,-2)                 0.3579         -DE/DX =    0.0                 !
 ! Z8    R(8,-3)                -0.018          -DE/DX =    0.0                 !
 ! R1    R(2,3)                  0.9971         -DE/DX =    0.0                 !
 ! R2    R(2,13)                 0.9981         -DE/DX =    0.0                 !
 ! R3    R(4,5)                  0.998          -DE/DX =    0.0                 !
 ! R4    R(4,10)                 0.997          -DE/DX =    0.0                 !
 ! R5    R(6,7)                  0.997          -DE/DX =    0.0                 !
 ! R6    R(6,11)                 0.9979         -DE/DX =    0.0                 !
 ! R7    R(8,9)                  0.998          -DE/DX =    0.0                 !
 ! R8    R(8,12)                 0.997          -DE/DX =    0.0                 !
 ! A1    A(1,2,3)              118.9856         -DE/DX =    0.0                 !
 ! A2    A(1,2,13)             115.87           -DE/DX =    0.0                 !
 ! A3    A(3,2,13)             107.3323         -DE/DX =    0.0                 !
 ! A4    A(1,4,5)              115.5938         -DE/DX =    0.0                 !
 ! A5    A(1,4,10)             118.6521         -DE/DX =    0.0                 !
 ! A6    A(5,4,10)             107.2978         -DE/DX =    0.0                 !
 ! A7    A(1,6,7)              118.6754         -DE/DX =    0.0                 !
 ! A8    A(1,6,11)             115.6254         -DE/DX =    0.0                 !
 ! A9    A(7,6,11)             107.2764         -DE/DX =    0.0                 !
 ! A10   A(1,8,9)              115.7204         -DE/DX =    0.0                 !
 ! A11   A(1,8,12)             118.8078         -DE/DX =    0.0                 !
 ! A12   A(9,8,12)             107.3135         -DE/DX =    0.0                 !
 ! D1    D(4,1,2,3)            -91.9822         -DE/DX =    0.0                 !
 ! D2    D(4,1,2,13)            38.3444         -DE/DX =    0.0                 !
 ! D3    D(8,1,2,3)             88.019          -DE/DX =    0.0                 !
 ! D4    D(8,1,2,13)          -141.6543         -DE/DX =    0.0                 !
 ! D5    D(3,2,6,7)             -2.6574         -DE/DX =    0.0                 !
 ! D6    D(3,2,6,11)           126.9902         -DE/DX =    0.0                 !
 ! D7    D(13,2,6,7)           127.6467         -DE/DX =    0.0                 !
 ! D8    D(13,2,6,11)         -102.7058         -DE/DX =    0.0                 !
 ! D9    D(2,1,4,5)           -141.8165         -DE/DX =    0.0                 !
 ! D10   D(2,1,4,10)            88.5846         -DE/DX =    0.0                 !
 ! D11   D(6,1,4,5)             38.1837         -DE/DX =    0.0                 !
 ! D12   D(6,1,4,10)           -91.4152         -DE/DX =    0.0                 !
 ! D13   D(5,4,8,9)           -103.0698         -DE/DX =    0.0                 !
 ! D14   D(5,4,8,12)           126.9285         -DE/DX =    0.0                 !
 ! D15   D(10,4,8,9)           127.3989         -DE/DX =    0.0                 !
 ! D16   D(10,4,8,12)           -2.6028         -DE/DX =    0.0                 !
 ! D17   D(4,1,6,7)             89.3245         -DE/DX =    0.0                 !
 ! D18   D(4,1,6,11)          -141.0501         -DE/DX =    0.0                 !
 ! D19   D(8,1,6,7)            -90.6767         -DE/DX =    0.0                 !
 ! D20   D(8,1,6,11)            38.9487         -DE/DX =    0.0                 !
 ! D21   D(2,1,8,9)             38.7457         -DE/DX =    0.0                 !
 ! D22   D(2,1,8,12)           -91.187          -DE/DX =    0.0                 !
 ! D23   D(6,1,8,9)           -141.2545         -DE/DX =    0.0                 !
 ! D24   D(6,1,8,12)            88.8127         -DE/DX =    0.0                 !
 --------------------------------------------------------------------------------
 GradGradGradGradGradGradGradGradGradGradGradGradGradGradGradGradGradGrad

                          Input orientation:                          
 ---------------------------------------------------------------------
 Center     Atomic      Atomic             Coordinates (Angstroms)
 Number     Number       Type             X           Y           Z
 ---------------------------------------------------------------------
      1         29           0        0.001404   -0.004228   -0.018147
      2          8           0        0.358586   -1.891462   -0.018450
      3          1           0        0.478034   -2.360738    0.853123
      4          8           0       -1.907543   -0.361837   -0.018304
      5          1           0       -2.461530    0.254260   -0.574629
      6          8           0       -0.362239    1.907537   -0.017831
      7          1           0       -0.461806    2.375420    0.856871
      8          8           0        1.905042    0.357935   -0.018031
      9          1           0        2.461620   -0.249943   -0.580865
     10          1           0       -2.373484   -0.471251    0.856296
     11          1           0        0.244560    2.462376   -0.583334
     12          1           0        2.373604    0.465360    0.855441
     13          1           0       -0.252468   -2.450253   -0.575729
 ---------------------------------------------------------------------
                    Distance matrix (angstroms):
                    1          2          3          4          5
     1  Cu   0.000000
     2  O    1.920737   0.000000
     3  H    2.557230   0.997059   0.000000
     4  O    1.942154   2.734062   3.232022   0.000000
     5  H    2.538214   3.586993   4.185419   0.997986   0.000000
     6  O    1.946043   3.866780   4.436529   2.745546   2.729537
     7  H    2.577391   4.432325   4.828509   3.216934   3.247677
     8  O    1.937783   2.729709   3.191620   3.879933   4.403124
     9  H    2.535684   2.726471   3.232087   4.406652   4.948906
    10  H    2.573490   3.200997   3.420720   0.996994   1.606757
    11  H    2.542184   4.391811   5.037891   3.595413   3.492675
    12  H    2.571187   3.221582   3.402942   4.447011   5.046602
    13  H    2.521584   0.998095   1.607254   2.722403   3.492041
                    6          7          8          9         10
     6  O    0.000000
     7  H    0.996960   0.000000
     8  O    2.746240   3.230738   0.000000
     9  H    3.598042   4.184021   0.998036   0.000000
    10  H    3.235404   3.429001   4.444973   5.049023   0.000000
    11  H    0.997921   1.606457   2.739606   3.503146   4.187226
    12  H    3.213615   3.418755   0.997017   1.606977   4.838604
    13  H    4.394728   5.038182   3.584940   3.493947   3.235097
                   11         12         13
    11  H    0.000000
    12  H    3.254378   0.000000
    13  H    4.937714   4.176757   0.000000
 Stoichiometry    CuH8O4(3+)
 Framework group  C1[X(CuH8O4)]
 Deg. of freedom    33
 Full point group                 C1      NOp   1
 Largest Abelian subgroup         C1      NOp   1
 Largest concise Abelian subgroup C1      NOp   1
                         Standard orientation:                         
 ---------------------------------------------------------------------
 Center     Atomic      Atomic             Coordinates (Angstroms)
 Number     Number       Type             X           Y           Z
 ---------------------------------------------------------------------
      1         29           0        0.001404   -0.004228   -0.018147
      2          8           0        0.358586   -1.891462   -0.018450
      3          1           0        0.478034   -2.360738    0.853123
      4          8           0       -1.907543   -0.361837   -0.018304
      5          1           0       -2.461530    0.254261   -0.574629
      6          8           0       -0.362239    1.907537   -0.017831
      7          1           0       -0.461806    2.375420    0.856871
      8          8           0        1.905042    0.357934   -0.018031
      9          1           0        2.461620   -0.249943   -0.580865
     10          1           0       -2.373484   -0.471251    0.856296
     11          1           0        0.244561    2.462376   -0.583334
     12          1           0        2.373604    0.465359    0.855441
     13          1           0       -0.252468   -2.450253   -0.575729
 ---------------------------------------------------------------------
 Rotational constants (GHZ):      3.4162295      3.3946361      1.7538859
 1\1\GINC-HECTOR-MACBOOKAIR\FOpt\RPBEPBE\CC-pVTZ/def2TZV\Cu1H8O4(3+)\HE
 CTOR\08-Aug-2024\0\\# opt pbepbe/cc-pvtz/def2tzv pop=(full,nbo) geom=c
 onnectivity output=wfx\\Cu2_cuadrado_plano_cc-pvtz-def2-tzv_2\\3,1\Cu,
 0.00140355,-0.00422817,-0.01814652\O,0.35858638,-1.89146168,-0.0184496
 7\H,0.47803449,-2.36073751,0.85312334\O,-1.90754332,-0.36183724,-0.018
 30369\H,-2.4615304,0.25426041,-0.57462896\O,-0.36223942,1.90753735,-0.
 0178309\H,-0.46180599,2.3754197,0.85687064\O,1.90504207,0.35793467,-0.
 01803143\H,2.46162004,-0.24994253,-0.5808647\H,-2.37348363,-0.47125133
 ,0.85629648\H,0.24456041,2.46237636,-0.58333405\H,2.37360429,0.4653596
 5,0.8554405\H,-0.2524679,-2.45025263,-0.57572869\\Version=EM64L-G09Rev
 E.01\State=1-A\HF=-1945.4304874\RMSD=8.981e-09\RMSF=9.737e-06\Dipole=0
 .0140539,0.0052584,0.8686514\Quadrupole=7.4254882,7.3001407,-14.725628
 9,-0.0348555,0.0018517,-0.023765\PG=C01 [X(Cu1H8O4)]\\@

 Writing a WFNX file to "Cu2_cuadrado_plano_cc-pvtz-def2-tzv_2.wfx"


 "A LITTLE BIT GOES A LONG WAY"
 R.S. MULLIKEN AS QUOTED BY K. RUEDENBERG
 Job cpu time:       0 days  0 hours  2 minutes 29.8 seconds.
 File lengths (MBytes):  RWF=     49 Int=      0 D2E=      0 Chk=      7 Scr=      1
 Normal termination of Gaussian 09 at Thu Aug  8 12:36:37 2024.
