 Entering Gaussian System, Link 0=g09
 Input=/home/scratch/M_H2O_4_tetraedrico/Opt/Cr2_tetraedrico_cc-pvtz-def2-tzv_2.gjf
 Output=/home/scratch/M_H2O_4_tetraedrico/Opt/Cr2_tetraedrico_cc-pvtz-def2-tzv_2.log
 Initial command:
 /opt/g09/l1.exe "/home/scratch/Gau-84504.inp" -scrdir="/home/scratch/"
 Entering Link 1 = /opt/g09/l1.exe PID=     84507.
  
 Copyright (c) 1988,1990,1992,1993,1995,1998,2003,2009,2015,
            Gaussian, Inc.  All Rights Reserved.
  
 This is part of the Gaussian(R) 09 program.  It is based on
 the Gaussian(R) 03 system (copyright 2003, Gaussian, Inc.),
 the Gaussian(R) 98 system (copyright 1998, Gaussian, Inc.),
 the Gaussian(R) 94 system (copyright 1995, Gaussian, Inc.),
 the Gaussian 92(TM) system (copyright 1992, Gaussian, Inc.),
 the Gaussian 90(TM) system (copyright 1990, Gaussian, Inc.),
 the Gaussian 88(TM) system (copyright 1988, Gaussian, Inc.),
 the Gaussian 86(TM) system (copyright 1986, Carnegie Mellon
 University), and the Gaussian 82(TM) system (copyright 1983,
 Carnegie Mellon University). Gaussian is a federally registered
 trademark of Gaussian, Inc.
  
 This software contains proprietary and confidential information,
 including trade secrets, belonging to Gaussian, Inc.
  
 This software is provided under written license and may be
 used, copied, transmitted, or stored only in accord with that
 written license.
  
 The following legend is applicable only to US Government
 contracts under FAR:
  
                    RESTRICTED RIGHTS LEGEND
  
 Use, reproduction and disclosure by the US Government is
 subject to restrictions as set forth in subparagraphs (a)
 and (c) of the Commercial Computer Software - Restricted
 Rights clause in FAR 52.227-19.
  
 Gaussian, Inc.
 340 Quinnipiac St., Bldg. 40, Wallingford CT 06492
  
  
 ---------------------------------------------------------------
 Warning -- This program may not be used in any manner that
 competes with the business of Gaussian, Inc. or will provide
 assistance to any competitor of Gaussian, Inc.  The licensee
 of this program is prohibited from giving any competitor of
 Gaussian, Inc. access to this program.  By using this program,
 the user acknowledges that Gaussian, Inc. is engaged in the
 business of creating and licensing software in the field of
 computational chemistry and represents and warrants to the
 licensee that it is not a competitor of Gaussian, Inc. and that
 it will not use this program in any manner prohibited above.
 ---------------------------------------------------------------
  

 Cite this work as:
 Gaussian 09, Revision E.01,
 M. J. Frisch, G. W. Trucks, H. B. Schlegel, G. E. Scuseria, 
 M. A. Robb, J. R. Cheeseman, G. Scalmani, V. Barone, B. Mennucci, 
 G. A. Petersson, H. Nakatsuji, M. Caricato, X. Li, H. P. Hratchian, 
 A. F. Izmaylov, J. Bloino, G. Zheng, J. L. Sonnenberg, M. Hada, 
 M. Ehara, K. Toyota, R. Fukuda, J. Hasegawa, M. Ishida, T. Nakajima, 
 Y. Honda, O. Kitao, H. Nakai, T. Vreven, J. A. Montgomery, Jr., 
 J. E. Peralta, F. Ogliaro, M. Bearpark, J. J. Heyd, E. Brothers, 
 K. N. Kudin, V. N. Staroverov, T. Keith, R. Kobayashi, J. Normand, 
 K. Raghavachari, A. Rendell, J. C. Burant, S. S. Iyengar, J. Tomasi, 
 M. Cossi, N. Rega, J. M. Millam, M. Klene, J. E. Knox, J. B. Cross, 
 V. Bakken, C. Adamo, J. Jaramillo, R. Gomperts, R. E. Stratmann, 
 O. Yazyev, A. J. Austin, R. Cammi, C. Pomelli, J. W. Ochterski, 
 R. L. Martin, K. Morokuma, V. G. Zakrzewski, G. A. Voth, 
 P. Salvador, J. J. Dannenberg, S. Dapprich, A. D. Daniels, 
 O. Farkas, J. B. Foresman, J. V. Ortiz, J. Cioslowski, 
 and D. J. Fox, Gaussian, Inc., Wallingford CT, 2013.
 
 ******************************************
 Gaussian 09:  EM64L-G09RevE.01 30-Nov-2015
                 8-Aug-2024 
 ******************************************
 %chk=Cr2_tetraedrico_cc-pvtz-def2-tzv_2.chk
 ------------------------------------------------------------------
 # opt pbepbe/cc-pvtz/def2tzv pop=full geom=connectivity output=wfx
 ------------------------------------------------------------------
 1/14=-1,18=20,19=15,26=3,38=1,57=2/1,3;
 2/9=110,12=2,17=6,18=5,40=1/2;
 3/5=16,6=1,11=2,16=1,25=1,30=1,71=1,74=1009,82=44/1,2,3;
 4//1;
 5/5=2,38=5/2;
 6/7=3,28=1/1;
 7//1,2,3,16;
 1/14=-1,18=20,19=15,26=3/3(2);
 2/9=110/2;
 99/6=200/99;
 2/9=110/2;
 3/5=16,6=1,11=2,16=1,25=1,30=1,71=1,74=1009,82=44/1,2,3;
 4/5=5,16=3,69=1/1;
 5/5=2,38=5/2;
 7//1,2,3,16;
 1/14=-1,18=20,19=15,26=3/3(-5);
 2/9=110/2;
 6/7=3,19=2,28=1/1;
 99/6=200,9=1/99;
 ----------------------------------
 Cr2_tetraedrico_cc-pvtz-def2-tzv_2
 ----------------------------------
 Symbolic Z-matrix:
 Charge =  2 Multiplicity = 1
 Cr                   -1   0.        -0.00001  -0.00001 
 O                    -1   -0.34174  -1.41978  -1.03518 
 H                    0     0.09033  -1.70173  -1.87606 
 O                    -1    0.34088   1.42245  -1.03176 
 H                    0     0.90179   2.18494  -0.7607 
 O                    -1   -1.42069   0.33995   1.03447 
 H                    0    -1.70353  -0.09325   1.87448 
 O                    -1    1.42154  -0.34267   1.03241 
 H                    0     2.18581  -0.9008    0.76053 
 H                    0    -0.093     1.70804  -1.8705 
 H                    0    -2.1846    0.89956   0.76466 
 H                    0     1.7043    0.08802   1.87373 
 H                    0    -0.90084  -2.18406  -0.76532 
 

 GradGradGradGradGradGradGradGradGradGradGradGradGradGradGradGradGradGrad
 Berny optimization.
 Initialization pass.
                           ----------------------------
                           !    Initial Parameters    !
                           ! (Angstroms and Degrees)  !
 --------------------------                            --------------------------
 ! Name  Definition              Value          Derivative Info.                !
 --------------------------------------------------------------------------------
 ! X1    R(1,-1)                 0.0            Frozen                          !
 ! Y1    R(1,-2)                 0.0            Frozen                          !
 ! Z1    R(1,-3)                 0.0            Frozen                          !
 ! X2    R(2,-1)                -0.3417         Frozen                          !
 ! Y2    R(2,-2)                -1.4198         Frozen                          !
 ! Z2    R(2,-3)                -1.0352         Frozen                          !
 ! X4    R(4,-1)                 0.3409         Frozen                          !
 ! Y4    R(4,-2)                 1.4224         Frozen                          !
 ! Z4    R(4,-3)                -1.0318         Frozen                          !
 ! X6    R(6,-1)                -1.4207         Frozen                          !
 ! Y6    R(6,-2)                 0.34           Frozen                          !
 ! Z6    R(6,-3)                 1.0345         Frozen                          !
 ! X8    R(8,-1)                 1.4215         Frozen                          !
 ! Y8    R(8,-2)                -0.3427         Frozen                          !
 ! Z8    R(8,-3)                 1.0324         Frozen                          !
 ! R1    R(2,3)                  0.9865         estimate D2E/DX2                !
 ! R2    R(2,13)                 0.9846         estimate D2E/DX2                !
 ! R3    R(4,5)                  0.9846         estimate D2E/DX2                !
 ! R4    R(4,10)                 0.9866         estimate D2E/DX2                !
 ! R5    R(6,7)                  0.9865         estimate D2E/DX2                !
 ! R6    R(6,11)                 0.9846         estimate D2E/DX2                !
 ! R7    R(8,9)                  0.9847         estimate D2E/DX2                !
 ! R8    R(8,12)                 0.9865         estimate D2E/DX2                !
 ! A1    A(1,2,3)              129.4932         estimate D2E/DX2                !
 ! A2    A(1,2,13)             124.4411         estimate D2E/DX2                !
 ! A3    A(3,2,13)             105.0973         estimate D2E/DX2                !
 ! A4    A(1,4,5)              124.4159         estimate D2E/DX2                !
 ! A5    A(1,4,10)             129.5181         estimate D2E/DX2                !
 ! A6    A(5,4,10)             105.0944         estimate D2E/DX2                !
 ! A7    A(1,6,7)              129.5113         estimate D2E/DX2                !
 ! A8    A(1,6,11)             124.4255         estimate D2E/DX2                !
 ! A9    A(7,6,11)             105.0973         estimate D2E/DX2                !
 ! A10   A(1,8,9)              124.4486         estimate D2E/DX2                !
 ! A11   A(1,8,12)             129.4885         estimate D2E/DX2                !
 ! A12   A(9,8,12)             105.097          estimate D2E/DX2                !
 ! D1    D(4,1,2,3)             39.7254         estimate D2E/DX2                !
 ! D2    D(4,1,2,13)          -153.2621         estimate D2E/DX2                !
 ! D3    D(6,1,2,3)            159.7254         estimate D2E/DX2                !
 ! D4    D(6,1,2,13)           -33.262          estimate D2E/DX2                !
 ! D5    D(8,1,2,3)            -80.2746         estimate D2E/DX2                !
 ! D6    D(8,1,2,13)            86.738          estimate D2E/DX2                !
 ! D7    D(2,1,4,5)           -153.1283         estimate D2E/DX2                !
 ! D8    D(2,1,4,10)            39.8812         estimate D2E/DX2                !
 ! D9    D(6,1,4,5)             86.8717         estimate D2E/DX2                !
 ! D10   D(6,1,4,10)           -80.1188         estimate D2E/DX2                !
 ! D11   D(8,1,4,5)            -33.1283         estimate D2E/DX2                !
 ! D12   D(8,1,4,10)           159.8812         estimate D2E/DX2                !
 ! D13   D(2,1,6,7)             80.289          estimate D2E/DX2                !
 ! D14   D(2,1,6,11)           -86.7391         estimate D2E/DX2                !
 ! D15   D(4,1,6,7)           -159.711          estimate D2E/DX2                !
 ! D16   D(4,1,6,11)            33.2609         estimate D2E/DX2                !
 ! D17   D(8,1,6,7)            -39.711          estimate D2E/DX2                !
 ! D18   D(8,1,6,11)           153.2609         estimate D2E/DX2                !
 ! D19   D(2,1,8,9)             33.3237         estimate D2E/DX2                !
 ! D20   D(2,1,8,12)          -159.6471         estimate D2E/DX2                !
 ! D21   D(4,1,8,9)            -86.6763         estimate D2E/DX2                !
 ! D22   D(4,1,8,12)            80.3529         estimate D2E/DX2                !
 ! D23   D(6,1,8,9)            153.3237         estimate D2E/DX2                !
 ! D24   D(6,1,8,12)           -39.6471         estimate D2E/DX2                !
 --------------------------------------------------------------------------------
 Trust Radius=3.00D-01 FncErr=1.00D-07 GrdErr=1.00D-06
 Number of steps in this run=     69 maximum allowed number of steps=    100.
 GradGradGradGradGradGradGradGradGradGradGradGradGradGradGradGradGradGrad

                          Input orientation:                          
 ---------------------------------------------------------------------
 Center     Atomic      Atomic             Coordinates (Angstroms)
 Number     Number       Type             X           Y           Z
 ---------------------------------------------------------------------
      1         24           0       -0.000005   -0.000013   -0.000015
      2          8           0       -0.341743   -1.419784   -1.035179
      3          1           0        0.090330   -1.701732   -1.876064
      4          8           0        0.340878    1.422448   -1.031764
      5          1           0        0.901789    2.184945   -0.760696
      6          8           0       -1.420694    0.339951    1.034474
      7          1           0       -1.703530   -0.093249    1.874481
      8          8           0        1.421540   -0.342667    1.032409
      9          1           0        2.185812   -0.900799    0.760534
     10          1           0       -0.093001    1.708037   -1.870495
     11          1           0       -2.184598    0.899562    0.764664
     12          1           0        1.704304    0.088021    1.873727
     13          1           0       -0.900841   -2.184059   -0.765316
 ---------------------------------------------------------------------
                    Distance matrix (angstroms):
                    1          2          3          4          5
     1  Cr   0.000000
     2  O    1.790000   0.000000
     3  H    2.534476   0.986544   0.000000
     4  O    1.790000   2.923058   3.245938   0.000000
     5  H    2.483124   3.823060   4.124168   0.984632   0.000000
     6  O    1.790000   2.923058   3.863016   2.923059   3.467068
     7  H    2.534646   3.475670   4.457773   3.863056   4.349944
     8  O    1.790000   2.923058   3.475398   2.923058   3.142322
     9  H    2.483474   3.143639   3.461818   3.466062   3.672148
    10  H    2.534715   3.246982   3.414698   0.986551   1.564833
    11  H    2.483227   3.466253   4.349191   3.143022   3.674876
    12  H    2.534429   3.862839   4.457472   3.475846   3.461402
    13  H    2.483394   0.984648   1.564871   3.823578   4.726276
                    6          7          8          9         10
     6  O    0.000000
     7  H    0.986545   0.000000
     8  O    2.923058   3.246131   0.000000
     9  H    3.823792   4.125530   0.984651   0.000000
    10  H    3.474662   4.456825   3.863428   4.349865   0.000000
    11  H    0.984637   1.564863   3.823487   4.726711   3.460126
    12  H    3.245525   3.412653   0.986542   1.564868   4.458022
    13  H    3.143265   3.461838   3.466409   3.674561   4.125825
                   11         12         13
    11  H    0.000000
    12  H    4.124583   0.000000
    13  H    3.673906   4.348985   0.000000
 Stoichiometry    CrH8O4(2+)
 Framework group  C1[X(CrH8O4)]
 Deg. of freedom    33
 Full point group                 C1      NOp   1
 Largest Abelian subgroup         C1      NOp   1
 Largest concise Abelian subgroup C1      NOp   1
                         Standard orientation:                         
 ---------------------------------------------------------------------
 Center     Atomic      Atomic             Coordinates (Angstroms)
 Number     Number       Type             X           Y           Z
 ---------------------------------------------------------------------
      1         24           0        0.000005    0.000013   -0.000015
      2          8           0        0.341687    1.419798   -1.035179
      3          1           0       -0.090397    1.701728   -1.876064
      4          8           0       -0.340821   -1.422461   -1.031764
      5          1           0       -0.901703   -2.184980   -0.760696
      6          8           0        1.420707   -0.339895    1.034474
      7          1           0        1.703527    0.093316    1.874481
      8          8           0       -1.421554    0.342610    1.032409
      9          1           0       -2.185848    0.900712    0.760534
     10          1           0        0.093069   -1.708033   -1.870495
     11          1           0        2.184633   -0.899476    0.764664
     12          1           0       -1.704301   -0.088088    1.873727
     13          1           0        0.900754    2.184094   -0.765316
 ---------------------------------------------------------------------
 Rotational constants (GHZ):      2.9677416      2.9676710      2.9567514
 Standard basis: CC-pVTZ (5D, 7F)
 There are   344 symmetry adapted cartesian basis functions of A   symmetry.
 There are   300 symmetry adapted basis functions of A   symmetry.
   300 basis functions,   691 primitive gaussians,   344 cartesian basis functions
    31 alpha electrons       31 beta electrons
       nuclear repulsion energy       405.1468598220 Hartrees.
 NAtoms=   13 NActive=   13 NUniq=   13 SFac= 1.00D+00 NAtFMM=   60 NAOKFM=F Big=F
 Integral buffers will be    131072 words long.
 Raffenetti 2 integral format.
 Two-electron integral symmetry is turned on.
 Standard density basis: def2TZV (5D, 7F)
   110 Density fitting functions
 There are   110 symmetry adapted density basis functions of A   symmetry.
 One-electron integrals computed using PRISM.
 NBasis=   300 RedAO= T EigKep=  1.37D-03  NBF=   300
 NBsUse=   300 1.00D-06 EigRej= -1.00D+00 NBFU=   300
 NBasis=      300 NBas6D=      344 NTT=       45150   NTT6D=    59340
 NDBShl=       68 NDBF=        110 NDBF6D=      113  NNucDB=        0
 IDenFi=        2 ISolve=        0 FullAP=F BlkAPC=T NucTyp=        0
 TolInv= 1.00D-06 TolIt=  1.00D-10 IR12=0.
 FoFCou: FMM=F IPFlag=           0 FMFlag=           0 FMFlg1=           0
         NFxFlg=           0 DoJE=F BraDBF=T KetDBF=T FulRan=T
         wScrn=  0.000000 ICntrl=     600 IOpCl=  3 I1Cent=           6 NGrid=           0
         NMat0=    1 NMatS0=    113 NMatT0=    0 NMatD0=    1 NMtDS0=    0 NMtDT0=    0
 Petite list used in FoFCou.
 DBF EigKep=  2.55D-04 EigRej= -1.00D+00
 NDBF=    110  NBFD=   110
 NRank=   110 NBFDU=   110
 S*AI*S=  9.58572432546    
 ExpMin= 3.33D-02 ExpMax= 6.18D+06 ExpMxC= 2.74D+03 IAcc=3 IRadAn=         5 AccDes= 0.00D+00
 Harris functional with IExCor= 1009 and IRadAn=       5 diagonalized for initial guess.
 HarFok:  IExCor= 1009 AccDes= 0.00D+00 IRadAn=         5 IDoV= 1 UseB2=F ITyADJ=14
 ICtDFT=  3500011 ScaDFX=  1.000000  1.000000  1.000000  1.000000
 FoFCou: FMM=F IPFlag=           0 FMFlag=      100000 FMFlg1=           0
         NFxFlg=           0 DoJE=T BraDBF=F KetDBF=T FulRan=T
         wScrn=  0.000000 ICntrl=     500 IOpCl=  0 I1Cent=   200000004 NGrid=           0
         NMat0=    1 NMatS0=      1 NMatT0=    0 NMatD0=    1 NMtDS0=    0 NMtDT0=    0
 Petite list used in FoFCou.
 Requested convergence on RMS density matrix=1.00D-08 within 128 cycles.
 Requested convergence on MAX density matrix=1.00D-06.
 Requested convergence on             energy=1.00D-06.
 No special actions if energy rises.
 FoFCou: FMM=F IPFlag=           0 FMFlag=      100000 FMFlg1=           0
         NFxFlg=           0 DoJE=T BraDBF=T KetDBF=F FulRan=T
         wScrn=  0.000000 ICntrl=     500 IOpCl=  0 I1Cent=           5 NGrid=           0
         NMat0=    1 NMatS0=      1 NMatT0=    0 NMatD0=    1 NMtDS0=    0 NMtDT0=    0
 Symmetry not used in FoFCou.
 EnCoef did   100 forward-backward iterations
 SCF Done:  E(RPBE-PBE) =  -1350.06709976     A.U. after   15 cycles
            NFock= 15  Conv=0.37D-08     -V/T= 2.0018

 **********************************************************************

            Population analysis using the SCF density.

 **********************************************************************

 Orbital symmetries:
       Occupied  (A) (A) (A) (A) (A) (A) (A) (A) (A) (A) (A) (A)
                 (A) (A) (A) (A) (A) (A) (A) (A) (A) (A) (A) (A)
                 (A) (A) (A) (A) (A) (A) (A)
       Virtual   (A) (A) (A) (A) (A) (A) (A) (A) (A) (A) (A) (A)
                 (A) (A) (A) (A) (A) (A) (A) (A) (A) (A) (A) (A)
                 (A) (A) (A) (A) (A) (A) (A) (A) (A) (A) (A) (A)
                 (A) (A) (A) (A) (A) (A) (A) (A) (A) (A) (A) (A)
                 (A) (A) (A) (A) (A) (A) (A) (A) (A) (A) (A) (A)
                 (A) (A) (A) (A) (A) (A) (A) (A) (A) (A) (A) (A)
                 (A) (A) (A) (A) (A) (A) (A) (A) (A) (A) (A) (A)
                 (A) (A) (A) (A) (A) (A) (A) (A) (A) (A) (A) (A)
                 (A) (A) (A) (A) (A) (A) (A) (A) (A) (A) (A) (A)
                 (A) (A) (A) (A) (A) (A) (A) (A) (A) (A) (A) (A)
                 (A) (A) (A) (A) (A) (A) (A) (A) (A) (A) (A) (A)
                 (A) (A) (A) (A) (A) (A) (A) (A) (A) (A) (A) (A)
                 (A) (A) (A) (A) (A) (A) (A) (A) (A) (A) (A) (A)
                 (A) (A) (A) (A) (A) (A) (A) (A) (A) (A) (A) (A)
                 (A) (A) (A) (A) (A) (A) (A) (A) (A) (A) (A) (A)
                 (A) (A) (A) (A) (A) (A) (A) (A) (A) (A) (A) (A)
                 (A) (A) (A) (A) (A) (A) (A) (A) (A) (A) (A) (A)
                 (A) (A) (A) (A) (A) (A) (A) (A) (A) (A) (A) (A)
                 (A) (A) (A) (A) (A) (A) (A) (A) (A) (A) (A) (A)
                 (A) (A) (A) (A) (A) (A) (A) (A) (A) (A) (A) (A)
                 (A) (A) (A) (A) (A) (A) (A) (A) (A) (A) (A) (A)
                 (A) (A) (A) (A) (A) (A) (A) (A) (A) (A) (A) (A)
                 (A) (A) (A) (A) (A)
 The electronic state is 1-A.
 Alpha  occ. eigenvalues -- -214.70668 -24.77509 -21.14506 -21.14428 -21.14426
 Alpha  occ. eigenvalues --  -19.17237 -19.17236 -19.17236 -19.17234  -3.08190
 Alpha  occ. eigenvalues --   -2.05769  -2.05766  -2.05754  -1.34272  -1.33600
 Alpha  occ. eigenvalues --   -1.33592  -1.33591  -0.89012  -0.88819  -0.88225
 Alpha  occ. eigenvalues --   -0.88223  -0.81971  -0.80311  -0.80310  -0.80303
 Alpha  occ. eigenvalues --   -0.71743  -0.69816  -0.69812  -0.69492  -0.48265
 Alpha  occ. eigenvalues --   -0.47522
 Alpha virt. eigenvalues --   -0.38671  -0.38553  -0.38550  -0.37844  -0.32835
 Alpha virt. eigenvalues --   -0.32834  -0.32513  -0.27100  -0.25678  -0.25674
 Alpha virt. eigenvalues --   -0.25007  -0.18847  -0.18739  -0.18731  -0.17538
 Alpha virt. eigenvalues --   -0.15312  -0.13675  -0.13594  -0.13592  -0.11931
 Alpha virt. eigenvalues --   -0.11732  -0.10513  -0.09378  -0.09376   0.04487
 Alpha virt. eigenvalues --    0.05173   0.05185   0.07834   0.07943   0.09782
 Alpha virt. eigenvalues --    0.09787   0.11268   0.21040   0.21043   0.21045
 Alpha virt. eigenvalues --    0.21328   0.22929   0.24151   0.24157   0.24981
 Alpha virt. eigenvalues --    0.25854   0.26792   0.27206   0.27212   0.27800
 Alpha virt. eigenvalues --    0.34517   0.34537   0.35364   0.38147   0.38162
 Alpha virt. eigenvalues --    0.39835   0.42916   0.47278   0.51255   0.57807
 Alpha virt. eigenvalues --    0.57823   0.60706   0.62007   0.62016   0.64776
 Alpha virt. eigenvalues --    0.73684   0.73702   0.73899   0.75324   0.75822
 Alpha virt. eigenvalues --    0.75834   0.76746   0.79191   0.82296   0.88525
 Alpha virt. eigenvalues --    0.89821   0.89843   0.92012   0.92016   0.92758
 Alpha virt. eigenvalues --    0.96377   0.97632   1.06679   1.06700   1.07408
 Alpha virt. eigenvalues --    1.10540   1.16525   1.17540   1.17562   1.27461
 Alpha virt. eigenvalues --    1.27565   1.30066   1.30098   1.37390   1.37420
 Alpha virt. eigenvalues --    1.40464   1.48791   1.48966   1.56546   1.56974
 Alpha virt. eigenvalues --    1.56976   1.57070   1.60474   1.65026   1.65047
 Alpha virt. eigenvalues --    1.69968   1.71275   1.76679   1.76702   1.85307
 Alpha virt. eigenvalues --    1.86866   1.86894   1.91553   2.06434   2.12918
 Alpha virt. eigenvalues --    2.12953   2.13216   2.23693   2.23712   2.28797
 Alpha virt. eigenvalues --    2.42306   2.42636   2.42644   2.43445   2.58376
 Alpha virt. eigenvalues --    2.61306   2.64816   2.64823   2.77235   2.77242
 Alpha virt. eigenvalues --    2.78372   2.81084   2.81916   2.83314   2.83336
 Alpha virt. eigenvalues --    2.86155   2.89244   2.89316   2.92490   2.92500
 Alpha virt. eigenvalues --    2.97711   2.97729   3.00958   3.04348   3.06441
 Alpha virt. eigenvalues --    3.06444   3.07448   3.10155   3.12808   3.14411
 Alpha virt. eigenvalues --    3.17917   3.17922   3.19520   3.20757   3.20783
 Alpha virt. eigenvalues --    3.23116   3.23664   3.35796   3.35810   3.36642
 Alpha virt. eigenvalues --    3.37676   3.37968   3.39118   3.39143   3.40677
 Alpha virt. eigenvalues --    3.42113   3.46760   3.48613   3.48630   3.54458
 Alpha virt. eigenvalues --    3.56728   3.57034   3.57044   3.57882   3.66145
 Alpha virt. eigenvalues --    3.66166   3.67156   3.78706   3.82563   3.82966
 Alpha virt. eigenvalues --    3.82989   3.83193   3.85189   3.85994   3.86366
 Alpha virt. eigenvalues --    3.86368   3.94815   3.94829   3.98124   4.09953
 Alpha virt. eigenvalues --    4.13293   4.15079   4.15090   4.25986   4.28942
 Alpha virt. eigenvalues --    4.39653   4.39671   4.47088   4.54796   4.54809
 Alpha virt. eigenvalues --    4.55931   4.59930   4.63346   4.63373   4.68164
 Alpha virt. eigenvalues --    4.97341   4.97464   4.97474   5.04340   5.27507
 Alpha virt. eigenvalues --    5.33955   5.33969   5.37681   5.40378   5.44629
 Alpha virt. eigenvalues --    5.45977   5.46379   5.46389   5.57752   5.66166
 Alpha virt. eigenvalues --    5.66182   5.69524   5.71460   5.71484   5.73108
 Alpha virt. eigenvalues --    5.86188   5.86614   5.87335   5.87345   5.89284
 Alpha virt. eigenvalues --    5.92601   5.94538   5.94550   6.06961   6.08403
 Alpha virt. eigenvalues --    6.09815   6.10371   6.10390   6.12336   6.13078
 Alpha virt. eigenvalues --    6.13083   6.18022   6.18796   6.18915   6.19223
 Alpha virt. eigenvalues --    6.19231   6.21412   6.25216   6.25223   6.27595
 Alpha virt. eigenvalues --    6.37157   6.37174   6.37301   6.41040   6.50699
 Alpha virt. eigenvalues --    6.52698   6.53700   6.53719   6.80199   6.80202
 Alpha virt. eigenvalues --    6.81248   6.84950   6.88215   6.90009   6.90024
 Alpha virt. eigenvalues --    7.33934   7.34465   7.36694   7.36713   8.41187
 Alpha virt. eigenvalues --   12.09963  12.10027  12.16085  12.17499
     Molecular Orbital Coefficients:
                           1         2         3         4         5
                           O         O         O         O         O
     Eigenvalues --  -214.70668 -24.77509 -21.14506 -21.14428 -21.14426
   1 1   Cr 1S          1.00126  -0.30140   0.00000  -0.00000   0.00000
   2        2S          0.00110   1.00007  -0.00000   0.00000  -0.00000
   3        3S          0.00443   0.00741  -0.00000   0.00000  -0.00000
   4        4S         -0.00001  -0.00024  -0.00000   0.00000   0.00000
   5        5S         -0.00121  -0.00266   0.00000   0.00000   0.00000
   6        6S         -0.00883   0.04752   0.00000   0.00000   0.00000
   7        7S         -0.00010  -0.00015   0.00000  -0.00000   0.00000
   8        8PX        -0.00000   0.00000  -0.00120   0.03486   1.00044
   9        8PY        -0.00000  -0.00000  -0.00506   1.00043  -0.03486
  10        8PZ         0.00000   0.00000   1.00103   0.00510   0.00102
  11        9PX         0.00000  -0.00000  -0.00001   0.00018   0.00677
  12        9PY        -0.00000  -0.00000  -0.00003   0.00677  -0.00018
  13        9PZ        -0.00000  -0.00000   0.00679   0.00003   0.00001
  14       10PX         0.00000  -0.00000  -0.00001   0.00020   0.01142
  15       10PY        -0.00000  -0.00000  -0.00006   0.01142  -0.00020
  16       10PZ        -0.00000  -0.00000   0.01108   0.00006   0.00001
  17       11PX        -0.00000  -0.00000  -0.00000   0.00012   0.00276
  18       11PY        -0.00000  -0.00000  -0.00002   0.00277  -0.00012
  19       11PZ         0.00000   0.00000   0.00229   0.00001   0.00000
  20       12PX         0.00000  -0.00000  -0.00001   0.00015   0.00492
  21       12PY        -0.00000   0.00000  -0.00002   0.00492  -0.00015
  22       12PZ        -0.00000  -0.00000   0.00495   0.00003   0.00000
  23       13PX        -0.00000  -0.00000  -0.00000   0.00006  -0.00047
  24       13PY        -0.00000  -0.00000   0.00000  -0.00047  -0.00006
  25       13PZ         0.00000   0.00000  -0.00030  -0.00000  -0.00000
  26       14D 0       -0.00000  -0.00003   0.00000   0.00000   0.00000
  27       14D+1        0.00000   0.00000   0.00000  -0.00032   0.00056
  28       14D-1       -0.00000   0.00000   0.00000  -0.00056  -0.00032
  29       14D+2       -0.00000   0.00000   0.00059   0.00000   0.00000
  30       14D-2        0.00000  -0.00000  -0.00014  -0.00000   0.00000
  31       15D 0        0.00002   0.00005  -0.00000  -0.00000  -0.00001
  32       15D+1       -0.00000  -0.00000  -0.00001   0.00143  -0.00252
  33       15D-1        0.00000   0.00000  -0.00002   0.00252   0.00143
  34       15D+2        0.00000  -0.00000  -0.00258  -0.00002  -0.00000
  35       15D-2       -0.00000  -0.00000   0.00080   0.00001  -0.00000
  36       16D 0        0.00000   0.00003   0.00000  -0.00000  -0.00000
  37       16D+1       -0.00000  -0.00000  -0.00000   0.00012  -0.00026
  38       16D-1        0.00000  -0.00000  -0.00000   0.00026   0.00012
  39       16D+2        0.00000  -0.00000  -0.00027  -0.00000  -0.00000
  40       16D-2       -0.00000   0.00000   0.00005   0.00000  -0.00000
  41       17D 0        0.00001   0.00003   0.00000   0.00000   0.00000
  42       17D+1       -0.00000  -0.00000   0.00000  -0.00001   0.00042
  43       17D-1        0.00000   0.00000   0.00000  -0.00042  -0.00001
  44       17D+2        0.00000   0.00000   0.00035   0.00000   0.00000
  45       17D-2        0.00000  -0.00000  -0.00031  -0.00000   0.00000
  46       18F 0        0.00000  -0.00000   0.00022   0.00000  -0.00000
  47       18F+1        0.00000   0.00000  -0.00000  -0.00001  -0.00013
  48       18F-1        0.00000   0.00000   0.00000  -0.00013   0.00001
  49       18F+2        0.00003   0.00002  -0.00000   0.00000   0.00000
  50       18F-2       -0.00001  -0.00003   0.00000   0.00000  -0.00000
  51       18F+3        0.00000   0.00000   0.00000  -0.00001  -0.00019
  52       18F-3        0.00000   0.00000  -0.00000   0.00019  -0.00001
  53       19F 0       -0.00000   0.00000   0.00020   0.00000   0.00000
  54       19F+1       -0.00000  -0.00000   0.00000   0.00000  -0.00011
  55       19F-1       -0.00000  -0.00000   0.00000  -0.00011  -0.00000
  56       19F+2       -0.00016  -0.00036   0.00000   0.00000  -0.00000
  57       19F-2        0.00008   0.00020  -0.00000   0.00000  -0.00000
  58       19F+3       -0.00000  -0.00000  -0.00000   0.00026  -0.00006
  59       19F-3       -0.00000  -0.00000  -0.00000   0.00006   0.00026
  60       20G 0        0.00002   0.00012  -0.00000   0.00000   0.00000
  61       20G+1       -0.00000  -0.00000  -0.00000  -0.00000   0.00001
  62       20G-1        0.00000   0.00000  -0.00000  -0.00001  -0.00000
  63       20G+2        0.00000  -0.00000  -0.00003  -0.00000  -0.00000
  64       20G-2       -0.00000  -0.00000   0.00000  -0.00000  -0.00000
  65       20G+3       -0.00000  -0.00000   0.00000  -0.00001  -0.00003
  66       20G-3       -0.00000  -0.00000   0.00000  -0.00003   0.00001
  67       20G+4       -0.00001  -0.00009  -0.00000   0.00000   0.00000
  68       20G-4        0.00001   0.00005  -0.00000   0.00000  -0.00000
  69 2   O  1S          0.00001   0.00001   0.00006  -0.00009  -0.00003
  70        2S          0.00001  -0.00002   0.00033  -0.00043  -0.00015
  71        3S         -0.00004  -0.00007  -0.00002   0.00002  -0.00001
  72        4S          0.00034   0.00084  -0.00174   0.00247   0.00078
  73        5PX         0.00000   0.00001  -0.00002  -0.00001  -0.00003
  74        5PY         0.00002   0.00004  -0.00002  -0.00001  -0.00000
  75        5PZ        -0.00001  -0.00003  -0.00002  -0.00003  -0.00003
  76        6PX        -0.00000  -0.00001   0.00021   0.00009   0.00020
  77        6PY        -0.00001  -0.00002   0.00021  -0.00005   0.00003
  78        6PZ         0.00001   0.00002   0.00013   0.00029   0.00026
  79        7PX        -0.00001  -0.00002   0.00134  -0.00020   0.00081
  80        7PY        -0.00002  -0.00007   0.00283  -0.00289  -0.00050
  81        7PZ         0.00004   0.00013  -0.00069   0.00313   0.00126
  82        8D 0       -0.00000  -0.00000   0.00002  -0.00002   0.00001
  83        8D+1        0.00001   0.00001   0.00003  -0.00003  -0.00004
  84        8D-1        0.00003   0.00006   0.00005  -0.00005  -0.00000
  85        8D+2        0.00002   0.00004   0.00002  -0.00005  -0.00000
  86        8D-2       -0.00001  -0.00002   0.00002  -0.00001  -0.00001
  87        9D 0        0.00000   0.00000  -0.00020   0.00001  -0.00013
  88        9D+1       -0.00002  -0.00005  -0.00021   0.00018   0.00013
  89        9D-1       -0.00012  -0.00028  -0.00012   0.00024   0.00009
  90        9D+2       -0.00008  -0.00019  -0.00011   0.00018  -0.00003
  91        9D-2        0.00004   0.00009  -0.00002   0.00020   0.00017
  92       10F 0       -0.00001  -0.00003  -0.00000  -0.00001  -0.00001
  93       10F+1       -0.00000  -0.00001   0.00003   0.00001   0.00002
  94       10F-1       -0.00001  -0.00002  -0.00002   0.00002  -0.00002
  95       10F+2       -0.00002  -0.00004   0.00001  -0.00001   0.00000
  96       10F-2        0.00001   0.00002   0.00001   0.00001   0.00002
  97       10F+3        0.00001   0.00002   0.00000  -0.00004  -0.00001
  98       10F-3        0.00001   0.00002  -0.00000   0.00002   0.00001
  99 3   H  1S          0.00000   0.00000   0.00000  -0.00010  -0.00008
 100        2S         -0.00011  -0.00022   0.00049   0.00149   0.00113
 101        3S          0.00001   0.00002   0.00002   0.00038   0.00028
 102        4PX        -0.00001  -0.00003   0.00005  -0.00005   0.00003
 103        4PY        -0.00001  -0.00003   0.00002  -0.00001  -0.00000
 104        4PZ        -0.00000  -0.00001   0.00005   0.00002   0.00001
 105        5PX        -0.00003  -0.00006  -0.00021   0.00069   0.00019
 106        5PY         0.00001   0.00002  -0.00075   0.00041  -0.00007
 107        5PZ        -0.00005  -0.00011   0.00027   0.00024   0.00041
 108        6D 0       -0.00000  -0.00000   0.00001   0.00001   0.00004
 109        6D+1       -0.00002  -0.00004  -0.00001   0.00012   0.00006
 110        6D-1       -0.00001  -0.00002  -0.00014   0.00011  -0.00001
 111        6D+2       -0.00001  -0.00002  -0.00008   0.00010   0.00003
 112        6D-2       -0.00001  -0.00001  -0.00006   0.00001  -0.00002
 113 4   O  1S          0.00001   0.00001   0.00006   0.00009   0.00003
 114        2S          0.00001  -0.00002   0.00032   0.00044   0.00015
 115        3S         -0.00004  -0.00007  -0.00002  -0.00002   0.00001
 116        4S          0.00034   0.00084  -0.00171  -0.00249  -0.00078
 117        5PX        -0.00000  -0.00001   0.00002  -0.00001  -0.00003
 118        5PY        -0.00002  -0.00004   0.00002  -0.00001  -0.00000
 119        5PZ        -0.00001  -0.00003  -0.00002   0.00003   0.00003
 120        6PX         0.00000   0.00001  -0.00021   0.00009   0.00020
 121        6PY         0.00001   0.00002  -0.00021  -0.00005   0.00003
 122        6PZ         0.00001   0.00002   0.00013  -0.00029  -0.00026
 123        7PX         0.00001   0.00002  -0.00134  -0.00022   0.00081
 124        7PY         0.00002   0.00007  -0.00279  -0.00294  -0.00051
 125        7PZ         0.00004   0.00013  -0.00065  -0.00313  -0.00126
 126        8D 0       -0.00000  -0.00000   0.00002   0.00002  -0.00001
 127        8D+1       -0.00001  -0.00001  -0.00003  -0.00003  -0.00004
 128        8D-1       -0.00003  -0.00006  -0.00005  -0.00005  -0.00000
 129        8D+2        0.00002   0.00004   0.00002   0.00005   0.00001
 130        8D-2       -0.00001  -0.00002   0.00002   0.00001   0.00001
 131        9D 0        0.00000   0.00000  -0.00020  -0.00001   0.00013
 132        9D+1        0.00002   0.00005   0.00021   0.00018   0.00013
 133        9D-1        0.00012   0.00028   0.00011   0.00024   0.00009
 134        9D+2       -0.00008  -0.00019  -0.00011  -0.00018   0.00002
 135        9D-2        0.00004   0.00009  -0.00001  -0.00020  -0.00017
 136       10F 0       -0.00001  -0.00003  -0.00000   0.00000   0.00002
 137       10F+1        0.00000   0.00001  -0.00003   0.00001   0.00002
 138       10F-1        0.00001   0.00002   0.00002   0.00002  -0.00002
 139       10F+2       -0.00002  -0.00004   0.00001   0.00001  -0.00000
 140       10F-2        0.00001   0.00002   0.00001  -0.00001  -0.00002
 141       10F+3       -0.00001  -0.00002  -0.00000  -0.00004  -0.00001
 142       10F-3       -0.00001  -0.00002   0.00000   0.00002   0.00001
 143 5   H  1S          0.00001   0.00002   0.00012   0.00003   0.00001
 144        2S         -0.00012  -0.00028  -0.00147   0.00027   0.00091
 145        3S          0.00001   0.00002  -0.00030  -0.00011   0.00007
 146        4PX        -0.00000  -0.00001  -0.00000   0.00003   0.00006
 147        4PY         0.00001   0.00002  -0.00000   0.00005   0.00005
 148        4PZ         0.00002   0.00004  -0.00001  -0.00007  -0.00003
 149        5PX        -0.00004  -0.00009  -0.00033   0.00001   0.00006
 150        5PY        -0.00005  -0.00011  -0.00018   0.00060   0.00048
 151        5PZ         0.00002   0.00004   0.00054   0.00075   0.00011
 152        6D 0       -0.00001  -0.00002  -0.00003  -0.00011  -0.00005
 153        6D+1        0.00002   0.00003   0.00008   0.00009   0.00000
 154        6D-1        0.00001   0.00002   0.00010   0.00008  -0.00001
 155        6D+2       -0.00000  -0.00001  -0.00004  -0.00011  -0.00006
 156        6D-2       -0.00001  -0.00001  -0.00003   0.00005   0.00003
 157 6   O  1S          0.00001   0.00001  -0.00006   0.00003  -0.00009
 158        2S          0.00001  -0.00002  -0.00032   0.00015  -0.00044
 159        3S         -0.00004  -0.00007   0.00002   0.00001   0.00002
 160        4S          0.00034   0.00084   0.00173  -0.00077   0.00248
 161        5PX         0.00002   0.00004   0.00002   0.00000  -0.00001
 162        5PY        -0.00000  -0.00001  -0.00002  -0.00003   0.00001
 163        5PZ         0.00001   0.00003  -0.00002  -0.00003   0.00003
 164        6PX        -0.00001  -0.00002  -0.00021  -0.00003  -0.00005
 165        6PY         0.00000   0.00001   0.00021   0.00020  -0.00009
 166        6PZ        -0.00001  -0.00002   0.00013   0.00026  -0.00029
 167        7PX        -0.00002  -0.00007  -0.00282   0.00049  -0.00291
 168        7PY         0.00001   0.00002   0.00133   0.00082   0.00021
 169        7PZ        -0.00004  -0.00013  -0.00068   0.00125  -0.00313
 170        8D 0       -0.00000  -0.00000  -0.00002  -0.00001  -0.00002
 171        8D+1       -0.00003  -0.00006   0.00005  -0.00000   0.00005
 172        8D-1        0.00001   0.00001  -0.00003   0.00004  -0.00003
 173        8D+2       -0.00002  -0.00004   0.00002  -0.00000   0.00005
 174        8D-2        0.00001   0.00002   0.00002  -0.00001   0.00001
 175        9D 0        0.00000   0.00000   0.00020   0.00013   0.00001
 176        9D+1        0.00012   0.00028  -0.00012   0.00009  -0.00024
 177        9D-1       -0.00002  -0.00005   0.00021  -0.00013   0.00018
 178        9D+2        0.00008   0.00019  -0.00011  -0.00003  -0.00018
 179        9D-2       -0.00004  -0.00009  -0.00002   0.00017  -0.00020
 180       10F 0        0.00001   0.00003  -0.00000  -0.00002   0.00001
 181       10F+1       -0.00001  -0.00002   0.00002   0.00002   0.00002
 182       10F-1        0.00000   0.00001   0.00003   0.00002  -0.00001
 183       10F+2       -0.00002  -0.00004  -0.00001  -0.00000  -0.00001
 184       10F-2        0.00001   0.00002  -0.00001  -0.00002   0.00001
 185       10F+3       -0.00001  -0.00002  -0.00000   0.00001  -0.00002
 186       10F-3        0.00001   0.00002  -0.00000   0.00001  -0.00004
 187 7   H  1S          0.00000   0.00000  -0.00000   0.00008  -0.00010
 188        2S         -0.00011  -0.00022  -0.00049  -0.00113   0.00148
 189        3S          0.00001   0.00002  -0.00002  -0.00028   0.00038
 190        4PX        -0.00001  -0.00003  -0.00002   0.00000  -0.00001
 191        4PY         0.00001   0.00003   0.00005   0.00003   0.00005
 192        4PZ         0.00000   0.00001   0.00005   0.00001  -0.00002
 193        5PX         0.00001   0.00002   0.00075   0.00008   0.00041
 194        5PY         0.00003   0.00007  -0.00021   0.00018  -0.00069
 195        5PZ         0.00005   0.00011   0.00027   0.00041  -0.00024
 196        6D 0       -0.00000  -0.00000  -0.00001  -0.00004   0.00001
 197        6D+1        0.00001   0.00002  -0.00014  -0.00001  -0.00011
 198        6D-1       -0.00002  -0.00004   0.00001  -0.00006   0.00012
 199        6D+2        0.00001   0.00002  -0.00008   0.00003  -0.00010
 200        6D-2        0.00001   0.00001  -0.00006  -0.00002  -0.00001
 201 8   O  1S          0.00001   0.00001  -0.00006  -0.00003   0.00009
 202        2S          0.00001  -0.00002  -0.00032  -0.00015   0.00044
 203        3S         -0.00004  -0.00007   0.00002  -0.00001  -0.00002
 204        4S          0.00034   0.00084   0.00172   0.00080  -0.00248
 205        5PX        -0.00002  -0.00004  -0.00002   0.00000  -0.00001
 206        5PY         0.00000   0.00001   0.00002  -0.00003   0.00001
 207        5PZ         0.00001   0.00003  -0.00002   0.00003  -0.00003
 208        6PX         0.00001   0.00002   0.00021  -0.00003  -0.00005
 209        6PY        -0.00000  -0.00001  -0.00021   0.00020  -0.00009
 210        6PZ        -0.00001  -0.00002   0.00013  -0.00026   0.00029
 211        7PX         0.00002   0.00007   0.00281   0.00052  -0.00291
 212        7PY        -0.00001  -0.00002  -0.00134   0.00080   0.00021
 213        7PZ        -0.00004  -0.00013  -0.00066  -0.00126   0.00313
 214        8D 0       -0.00000  -0.00000  -0.00002   0.00001   0.00002
 215        8D+1        0.00003   0.00006  -0.00005  -0.00000   0.00005
 216        8D-1       -0.00001  -0.00001   0.00003   0.00004  -0.00003
 217        8D+2       -0.00002  -0.00004   0.00002   0.00001  -0.00005
 218        8D-2        0.00001   0.00002   0.00002   0.00001  -0.00001
 219        9D 0        0.00000   0.00000   0.00020  -0.00013  -0.00001
 220        9D+1       -0.00012  -0.00028   0.00012   0.00009  -0.00024
 221        9D-1        0.00002   0.00005  -0.00021  -0.00013   0.00018
 222        9D+2        0.00008   0.00019  -0.00011   0.00002   0.00018
 223        9D-2       -0.00004  -0.00009  -0.00001  -0.00017   0.00020
 224       10F 0        0.00001   0.00003  -0.00000   0.00001  -0.00000
 225       10F+1        0.00001   0.00002  -0.00002   0.00002   0.00002
 226       10F-1       -0.00000  -0.00001  -0.00003   0.00002  -0.00001
 227       10F+2       -0.00002  -0.00004  -0.00001   0.00000   0.00001
 228       10F-2        0.00001   0.00002  -0.00001   0.00002  -0.00001
 229       10F+3        0.00001   0.00002   0.00000   0.00001  -0.00002
 230       10F-3       -0.00001  -0.00002   0.00000   0.00001  -0.00004
 231 9   H  1S          0.00001   0.00002  -0.00012  -0.00001   0.00003
 232        2S         -0.00012  -0.00028   0.00148  -0.00090   0.00028
 233        3S          0.00001   0.00002   0.00030  -0.00007  -0.00011
 234        4PX         0.00001   0.00002   0.00000  -0.00005   0.00005
 235        4PY         0.00000   0.00001  -0.00000   0.00006  -0.00003
 236        4PZ        -0.00002  -0.00004  -0.00001  -0.00003   0.00007
 237        5PX        -0.00005  -0.00011   0.00018  -0.00047   0.00060
 238        5PY         0.00004   0.00009  -0.00032   0.00006  -0.00001
 239        5PZ        -0.00002  -0.00004   0.00054   0.00011  -0.00075
 240        6D 0       -0.00001  -0.00002   0.00003   0.00005  -0.00011
 241        6D+1       -0.00001  -0.00002   0.00010  -0.00001  -0.00008
 242        6D-1        0.00002   0.00003  -0.00008  -0.00000   0.00008
 243        6D+2        0.00000   0.00001  -0.00004  -0.00006   0.00011
 244        6D-2        0.00001   0.00001  -0.00003   0.00003  -0.00005
 245 10  H  1S          0.00000   0.00000   0.00000   0.00010   0.00009
 246        2S         -0.00011  -0.00022   0.00051  -0.00148  -0.00114
 247        3S          0.00001   0.00002   0.00003  -0.00037  -0.00028
 248        4PX         0.00001   0.00003  -0.00005  -0.00005   0.00003
 249        4PY         0.00001   0.00003  -0.00002  -0.00001  -0.00000
 250        4PZ        -0.00000  -0.00001   0.00005  -0.00002  -0.00001
 251        5PX         0.00003   0.00007   0.00020   0.00069   0.00019
 252        5PY        -0.00001  -0.00002   0.00074   0.00042  -0.00007
 253        5PZ        -0.00005  -0.00011   0.00027  -0.00023  -0.00041
 254        6D 0       -0.00000  -0.00000   0.00001  -0.00001  -0.00004
 255        6D+1        0.00002   0.00004   0.00001   0.00012   0.00006
 256        6D-1        0.00001   0.00002   0.00014   0.00011  -0.00001
 257        6D+2       -0.00001  -0.00002  -0.00008  -0.00010  -0.00003
 258        6D-2       -0.00001  -0.00001  -0.00006  -0.00001   0.00002
 259 11  H  1S          0.00001   0.00002  -0.00012   0.00001  -0.00003
 260        2S         -0.00012  -0.00028   0.00146   0.00091  -0.00028
 261        3S          0.00001   0.00002   0.00030   0.00007   0.00011
 262        4PX        -0.00001  -0.00002   0.00000  -0.00005   0.00005
 263        4PY        -0.00000  -0.00001   0.00000   0.00006  -0.00003
 264        4PZ        -0.00002  -0.00004  -0.00001   0.00003  -0.00007
 265        5PX         0.00005   0.00011  -0.00018  -0.00048   0.00060
 266        5PY        -0.00004  -0.00009   0.00032   0.00006  -0.00001
 267        5PZ        -0.00002  -0.00004   0.00054  -0.00011   0.00075
 268        6D 0       -0.00001  -0.00002   0.00003  -0.00004   0.00011
 269        6D+1        0.00001   0.00002  -0.00010  -0.00001  -0.00008
 270        6D-1       -0.00002  -0.00003   0.00008  -0.00000   0.00009
 271        6D+2        0.00000   0.00001  -0.00004   0.00006  -0.00011
 272        6D-2        0.00001   0.00001  -0.00003  -0.00004   0.00005
 273 12  H  1S          0.00000   0.00000  -0.00000  -0.00008   0.00010
 274        2S         -0.00011  -0.00022  -0.00051   0.00113  -0.00148
 275        3S          0.00001   0.00002  -0.00003   0.00028  -0.00038
 276        4PX         0.00001   0.00003   0.00002   0.00000  -0.00001
 277        4PY        -0.00001  -0.00003  -0.00005   0.00003   0.00005
 278        4PZ         0.00000   0.00001   0.00005  -0.00001   0.00002
 279        5PX        -0.00001  -0.00002  -0.00075   0.00007   0.00041
 280        5PY        -0.00003  -0.00006   0.00020   0.00019  -0.00069
 281        5PZ         0.00005   0.00011   0.00027  -0.00040   0.00024
 282        6D 0       -0.00000  -0.00000  -0.00001   0.00004  -0.00001
 283        6D+1       -0.00001  -0.00002   0.00014  -0.00001  -0.00011
 284        6D-1        0.00002   0.00004  -0.00001  -0.00006   0.00012
 285        6D+2        0.00001   0.00002  -0.00008  -0.00003   0.00010
 286        6D-2        0.00001   0.00001  -0.00006   0.00002   0.00001
 287 13  H  1S          0.00001   0.00002   0.00012  -0.00003  -0.00001
 288        2S         -0.00012  -0.00028  -0.00147  -0.00029  -0.00091
 289        3S          0.00001   0.00002  -0.00030   0.00011  -0.00007
 290        4PX         0.00000   0.00001   0.00000   0.00003   0.00006
 291        4PY        -0.00001  -0.00002  -0.00000   0.00005   0.00005
 292        4PZ         0.00002   0.00004  -0.00001   0.00007   0.00003
 293        5PX         0.00004   0.00009   0.00032   0.00001   0.00006
 294        5PY         0.00005   0.00011   0.00018   0.00060   0.00048
 295        5PZ         0.00002   0.00004   0.00055  -0.00074  -0.00011
 296        6D 0       -0.00001  -0.00002  -0.00003   0.00011   0.00005
 297        6D+1       -0.00002  -0.00003  -0.00008   0.00008   0.00000
 298        6D-1       -0.00001  -0.00002  -0.00010   0.00008  -0.00001
 299        6D+2       -0.00000  -0.00001  -0.00004   0.00011   0.00006
 300        6D-2       -0.00001  -0.00001  -0.00003  -0.00005  -0.00003
                           6         7         8         9        10
                           O         O         O         O         O
     Eigenvalues --   -19.17237 -19.17236 -19.17236 -19.17234  -3.08190
   1 1   Cr 1S         -0.00001  -0.00001  -0.00001  -0.00001   0.10938
   2        2S         -0.00062  -0.00072  -0.00074  -0.00076  -0.34622
   3        3S         -0.00061  -0.00071  -0.00073  -0.00074   1.09643
   4        4S          0.00045   0.00052   0.00054   0.00055  -0.00094
   5        5S          0.00039   0.00046   0.00047   0.00048   0.16662
   6        6S          0.00117   0.00136   0.00141   0.00143  -0.14848
   7        7S         -0.00000  -0.00001  -0.00001  -0.00001  -0.00099
   8        8PX         0.00000   0.00001  -0.00000  -0.00000  -0.00000
   9        8PY         0.00001  -0.00000  -0.00000   0.00000   0.00000
  10        8PZ         0.00000  -0.00000   0.00000  -0.00000  -0.00000
  11        9PX         0.00016   0.00039  -0.00014  -0.00035  -0.00000
  12        9PY         0.00037  -0.00013  -0.00036   0.00017  -0.00000
  13        9PZ         0.00030  -0.00027   0.00028  -0.00027  -0.00000
  14       10PX         0.00038   0.00147  -0.00034  -0.00137   0.00000
  15       10PY         0.00144  -0.00028  -0.00139   0.00045   0.00000
  16       10PZ         0.00107  -0.00094   0.00098  -0.00095  -0.00000
  17       11PX        -0.00051  -0.00053   0.00048   0.00045   0.00000
  18       11PY        -0.00050   0.00047   0.00049  -0.00052   0.00000
  19       11PZ        -0.00067   0.00059  -0.00062   0.00060  -0.00000
  20       12PX         0.00006   0.00011  -0.00006  -0.00009  -0.00000
  21       12PY         0.00010  -0.00005  -0.00010   0.00006   0.00000
  22       12PZ         0.00009  -0.00008   0.00008  -0.00008  -0.00001
  23       13PX        -0.00002  -0.00006   0.00002   0.00006  -0.00000
  24       13PY        -0.00006   0.00002   0.00006  -0.00002  -0.00000
  25       13PZ        -0.00000   0.00000  -0.00000   0.00000  -0.00000
  26       14D 0        0.00001   0.00001   0.00001   0.00001  -0.00014
  27       14D+1        0.00005   0.00000  -0.00005   0.00001   0.00000
  28       14D-1        0.00000   0.00005  -0.00000  -0.00005  -0.00000
  29       14D+2       -0.00000   0.00000  -0.00000   0.00000  -0.00000
  30       14D-2       -0.00003   0.00003  -0.00003   0.00003   0.00000
  31       15D 0       -0.00002  -0.00002  -0.00002  -0.00003   0.00012
  32       15D+1        0.00005  -0.00100  -0.00007   0.00097  -0.00000
  33       15D-1        0.00100   0.00013  -0.00096   0.00001   0.00000
  34       15D+2       -0.00068   0.00059  -0.00062   0.00060   0.00000
  35       15D-2        0.00041  -0.00037   0.00038  -0.00037  -0.00000
  36       16D 0       -0.00000  -0.00000  -0.00000  -0.00000   0.00007
  37       16D+1       -0.00003   0.00002   0.00002  -0.00002  -0.00000
  38       16D-1       -0.00002  -0.00003   0.00002   0.00002  -0.00000
  39       16D+2        0.00002  -0.00001   0.00001  -0.00001  -0.00000
  40       16D-2        0.00000  -0.00000   0.00000  -0.00000   0.00000
  41       17D 0        0.00001   0.00002   0.00002   0.00002   0.00003
  42       17D+1       -0.00028  -0.00008   0.00026   0.00005  -0.00000
  43       17D-1        0.00006  -0.00027  -0.00007   0.00027  -0.00000
  44       17D+2       -0.00008   0.00007  -0.00008   0.00007  -0.00000
  45       17D-2        0.00016  -0.00014   0.00015  -0.00014   0.00000
  46       18F 0       -0.00003   0.00003  -0.00003   0.00003  -0.00000
  47       18F+1        0.00001   0.00002  -0.00001  -0.00002  -0.00000
  48       18F-1        0.00002  -0.00001  -0.00002   0.00001  -0.00000
  49       18F+2       -0.00003  -0.00003  -0.00003  -0.00003  -0.00053
  50       18F-2        0.00001   0.00002   0.00002   0.00002  -0.00009
  51       18F+3       -0.00002   0.00003   0.00002  -0.00003   0.00000
  52       18F-3       -0.00003  -0.00003   0.00003   0.00002  -0.00000
  53       19F 0        0.00023  -0.00021   0.00021  -0.00021   0.00000
  54       19F+1       -0.00006  -0.00017   0.00005   0.00016   0.00000
  55       19F-1       -0.00017   0.00004   0.00016  -0.00006   0.00000
  56       19F+2        0.00021   0.00024   0.00025   0.00025   0.00164
  57       19F-2       -0.00011  -0.00013  -0.00013  -0.00013  -0.00034
  58       19F+3        0.00015  -0.00018  -0.00015   0.00020  -0.00000
  59       19F-3        0.00019   0.00017  -0.00018  -0.00014   0.00000
  60       20G 0       -0.00004  -0.00005  -0.00005  -0.00005   0.00386
  61       20G+1       -0.00001   0.00003   0.00001  -0.00003  -0.00001
  62       20G-1       -0.00003  -0.00001   0.00003   0.00000   0.00001
  63       20G+2       -0.00006   0.00005  -0.00005   0.00005  -0.00000
  64       20G-2        0.00003  -0.00003   0.00003  -0.00003   0.00000
  65       20G+3       -0.00005  -0.00007   0.00005   0.00006  -0.00000
  66       20G-3       -0.00006   0.00005   0.00006  -0.00005  -0.00000
  67       20G+4        0.00002   0.00002   0.00002   0.00002  -0.00323
  68       20G-4       -0.00003  -0.00003  -0.00003  -0.00003   0.00065
  69 2   O  1S         -0.01670  -0.06002   0.97080   0.03143  -0.00155
  70        2S          0.00011   0.00041  -0.00715  -0.00031   0.00234
  71        3S         -0.00088  -0.00314   0.05105   0.00163   0.00043
  72        4S          0.00002  -0.00100   0.00429   0.00151   0.00380
  73        5PX        -0.00001   0.00001   0.00001   0.00001  -0.00030
  74        5PY        -0.00001  -0.00004   0.00086   0.00004  -0.00122
  75        5PZ         0.00000   0.00001  -0.00036  -0.00000   0.00090
  76        6PX         0.00008  -0.00007   0.00026  -0.00009  -0.00039
  77        6PY        -0.00004  -0.00018   0.00130   0.00001  -0.00152
  78        6PZ         0.00007   0.00013  -0.00076  -0.00017   0.00115
  79        7PX         0.00001   0.00007   0.00031  -0.00049  -0.00045
  80        7PY        -0.00013  -0.00057   0.00238  -0.00034  -0.00246
  81        7PZ         0.00052   0.00029  -0.00148  -0.00026   0.00192
  82        8D 0        0.00001  -0.00001   0.00003  -0.00001  -0.00000
  83        8D+1       -0.00000  -0.00001   0.00013  -0.00000  -0.00002
  84        8D-1        0.00001   0.00000  -0.00014   0.00001  -0.00008
  85        8D+2       -0.00000   0.00000  -0.00012   0.00001  -0.00006
  86        8D-2       -0.00001  -0.00001   0.00013   0.00001   0.00004
  87        9D 0       -0.00010  -0.00000   0.00016   0.00015   0.00005
  88        9D+1       -0.00002  -0.00008   0.00069   0.00013  -0.00025
  89        9D-1        0.00002   0.00000   0.00060  -0.00010  -0.00145
  90        9D+2        0.00000   0.00001   0.00035  -0.00001  -0.00094
  91        9D-2        0.00006  -0.00001   0.00017  -0.00008   0.00048
  92       10F 0        0.00000   0.00002  -0.00013  -0.00000  -0.00018
  93       10F+1        0.00001   0.00002  -0.00017  -0.00002  -0.00006
  94       10F-1        0.00000  -0.00001   0.00004   0.00002  -0.00014
  95       10F+2        0.00000   0.00001  -0.00008  -0.00001  -0.00030
  96       10F-2       -0.00000  -0.00002   0.00016   0.00000   0.00016
  97       10F+3       -0.00000   0.00002  -0.00013  -0.00000   0.00010
  98       10F-3        0.00000  -0.00001   0.00008   0.00000   0.00016
  99 3   H  1S         -0.00001  -0.00005   0.00035   0.00002  -0.00002
 100        2S          0.00043   0.00072  -0.00335  -0.00098   0.00000
 101        3S          0.00009  -0.00004  -0.00053   0.00008   0.00045
 102        4PX         0.00002   0.00001  -0.00013  -0.00004  -0.00013
 103        4PY        -0.00001  -0.00002   0.00023   0.00001  -0.00011
 104        4PZ         0.00002   0.00004  -0.00036  -0.00006  -0.00006
 105        5PX         0.00012   0.00016  -0.00077  -0.00014   0.00005
 106        5PY        -0.00003  -0.00003   0.00053   0.00021   0.00026
 107        5PZ         0.00014   0.00028  -0.00155  -0.00040  -0.00018
 108        6D 0        0.00002   0.00007  -0.00072  -0.00006  -0.00002
 109        6D+1        0.00004   0.00007  -0.00067  -0.00006  -0.00012
 110        6D-1       -0.00002  -0.00004   0.00065   0.00006  -0.00005
 111        6D+2        0.00001   0.00001  -0.00005  -0.00000  -0.00005
 112        6D-2       -0.00002  -0.00003   0.00036   0.00003  -0.00004
 113 4   O  1S          0.96903   0.08695   0.02149   0.01699  -0.00155
 114        2S         -0.00713  -0.00071  -0.00018  -0.00016   0.00234
 115        3S          0.05096   0.00455   0.00113   0.00091   0.00043
 116        4S          0.00425   0.00177   0.00025  -0.00063   0.00380
 117        5PX        -0.00001  -0.00001   0.00001  -0.00001   0.00030
 118        5PY        -0.00085  -0.00009  -0.00003  -0.00002   0.00122
 119        5PZ        -0.00035  -0.00002  -0.00001  -0.00002   0.00089
 120        6PX        -0.00026   0.00008  -0.00008   0.00006   0.00039
 121        6PY        -0.00131  -0.00009   0.00000   0.00008   0.00152
 122        6PZ        -0.00076  -0.00022   0.00003   0.00006   0.00115
 123        7PX        -0.00033   0.00047   0.00001  -0.00008   0.00045
 124        7PY        -0.00244   0.00018   0.00009   0.00039   0.00246
 125        7PZ        -0.00149  -0.00039   0.00045   0.00014   0.00192
 126        8D 0        0.00003  -0.00001   0.00001  -0.00000  -0.00000
 127        8D+1       -0.00014  -0.00001  -0.00000   0.00000   0.00002
 128        8D-1        0.00014   0.00000  -0.00000   0.00001   0.00008
 129        8D+2       -0.00012  -0.00000  -0.00001  -0.00000  -0.00006
 130        8D-2        0.00013   0.00002  -0.00000  -0.00000   0.00004
 131        9D 0        0.00015   0.00017  -0.00008   0.00002   0.00005
 132        9D+1       -0.00068  -0.00017  -0.00001   0.00002   0.00025
 133        9D-1       -0.00060   0.00007  -0.00004  -0.00004   0.00145
 134        9D+2        0.00035   0.00001   0.00002   0.00004  -0.00094
 135        9D-2        0.00017  -0.00008   0.00006   0.00000   0.00048
 136       10F 0       -0.00013  -0.00001  -0.00000   0.00001  -0.00018
 137       10F+1        0.00017   0.00003  -0.00001  -0.00000   0.00006
 138       10F-1       -0.00005  -0.00002  -0.00001   0.00000   0.00014
 139       10F+2       -0.00008  -0.00002  -0.00000   0.00001  -0.00030
 140       10F-2        0.00016   0.00001   0.00001  -0.00000   0.00016
 141       10F+3        0.00013   0.00001   0.00001  -0.00000  -0.00011
 142       10F-3       -0.00008  -0.00001  -0.00000   0.00001  -0.00016
 143 5   H  1S          0.00031   0.00002   0.00000  -0.00002   0.00006
 144        2S         -0.00336   0.00001  -0.00024   0.00038  -0.00024
 145        3S         -0.00057   0.00004  -0.00002   0.00007   0.00041
 146        4PX        -0.00023  -0.00000  -0.00000  -0.00000  -0.00006
 147        4PY        -0.00042  -0.00001  -0.00002   0.00000   0.00004
 148        4PZ         0.00003  -0.00001   0.00002  -0.00001   0.00016
 149        5PX        -0.00106  -0.00008  -0.00009   0.00014  -0.00007
 150        5PY        -0.00144  -0.00006  -0.00013   0.00010  -0.00034
 151        5PZ         0.00050   0.00001  -0.00005  -0.00006  -0.00021
 152        6D 0        0.00058   0.00005   0.00002  -0.00000  -0.00005
 153        6D+1        0.00019   0.00001   0.00000  -0.00001   0.00011
 154        6D-1        0.00040   0.00001   0.00001  -0.00001   0.00006
 155        6D+2        0.00038   0.00003   0.00002   0.00000  -0.00001
 156        6D-2       -0.00095  -0.00007  -0.00003   0.00001  -0.00005
 157 6   O  1S         -0.01526  -0.01205  -0.03251   0.97257  -0.00155
 158        2S          0.00004   0.00007   0.00020  -0.00716   0.00234
 159        3S         -0.00082  -0.00064  -0.00170   0.05114   0.00043
 160        4S          0.00131   0.00016  -0.00084   0.00438   0.00379
 161        5PX        -0.00000  -0.00000  -0.00002   0.00086  -0.00122
 162        5PY        -0.00001   0.00001  -0.00001  -0.00001   0.00030
 163        5PZ        -0.00002  -0.00000  -0.00000   0.00036  -0.00090
 164        6PX        -0.00004  -0.00004  -0.00015   0.00130  -0.00152
 165        6PY         0.00011  -0.00007   0.00007  -0.00025   0.00039
 166        6PZ         0.00014  -0.00005  -0.00010   0.00077  -0.00115
 167        7PX        -0.00043  -0.00017  -0.00051   0.00238  -0.00246
 168        7PY         0.00050   0.00004  -0.00006  -0.00028   0.00044
 169        7PZ         0.00024  -0.00049  -0.00023   0.00150  -0.00192
 170        8D 0       -0.00001   0.00001  -0.00001   0.00003  -0.00000
 171        8D+1       -0.00001  -0.00001   0.00000   0.00014   0.00008
 172        8D-1       -0.00001  -0.00000  -0.00001   0.00013  -0.00002
 173        8D+2       -0.00001   0.00000  -0.00000   0.00012   0.00006
 174        8D-2       -0.00001   0.00001   0.00001  -0.00013  -0.00004
 175        9D 0        0.00015  -0.00008   0.00001   0.00016   0.00005
 176        9D+1        0.00014  -0.00001  -0.00001  -0.00059   0.00146
 177        9D-1        0.00009  -0.00001  -0.00006   0.00069  -0.00025
 178        9D+2        0.00003  -0.00000  -0.00002  -0.00035   0.00094
 179        9D-2        0.00010  -0.00005   0.00001  -0.00016  -0.00048
 180       10F 0       -0.00000  -0.00000  -0.00001   0.00013   0.00018
 181       10F+1        0.00002   0.00000  -0.00001   0.00005  -0.00014
 182       10F-1        0.00002  -0.00001  -0.00001   0.00017   0.00006
 183       10F+2       -0.00001   0.00000   0.00001  -0.00008  -0.00030
 184       10F-2       -0.00000   0.00000  -0.00001   0.00016   0.00016
 185       10F+3        0.00000  -0.00000   0.00001  -0.00008  -0.00016
 186       10F-3        0.00000  -0.00000   0.00001  -0.00013   0.00010
 187 7   H  1S          0.00001  -0.00001  -0.00004   0.00035  -0.00002
 188        2S         -0.00088   0.00034   0.00058  -0.00342   0.00001
 189        3S          0.00010   0.00009  -0.00005  -0.00053   0.00045
 190        4PX         0.00000  -0.00001  -0.00001   0.00023  -0.00011
 191        4PY         0.00004  -0.00001  -0.00000   0.00013   0.00013
 192        4PZ         0.00004  -0.00001  -0.00002   0.00036   0.00006
 193        5PX         0.00019  -0.00001  -0.00001   0.00055   0.00026
 194        5PY         0.00012  -0.00010  -0.00014   0.00079  -0.00005
 195        5PZ         0.00034  -0.00010  -0.00022   0.00157   0.00018
 196        6D 0       -0.00003   0.00001   0.00005  -0.00072  -0.00002
 197        6D+1       -0.00002   0.00001   0.00002  -0.00065   0.00005
 198        6D-1       -0.00004   0.00003   0.00005  -0.00067  -0.00012
 199        6D+2        0.00000  -0.00001  -0.00001   0.00005   0.00005
 200        6D-2       -0.00002   0.00001   0.00002  -0.00036   0.00004
 201 8   O  1S         -0.08833   0.96748   0.05787   0.01253  -0.00155
 202        2S          0.00062  -0.00712  -0.00050  -0.00011   0.00234
 203        3S         -0.00463   0.05088   0.00302   0.00066   0.00043
 204        4S         -0.00115   0.00421   0.00161   0.00014   0.00379
 205        5PX         0.00007  -0.00085  -0.00006  -0.00002   0.00122
 206        5PY         0.00001   0.00001   0.00001  -0.00001  -0.00030
 207        5PZ        -0.00002   0.00036   0.00001   0.00001  -0.00089
 208        6PX         0.00022  -0.00129  -0.00005   0.00002   0.00152
 209        6PY        -0.00008   0.00026  -0.00009   0.00007  -0.00039
 210        6PZ        -0.00015   0.00075   0.00019  -0.00004  -0.00115
 211        7PX         0.00063  -0.00238   0.00027   0.00012   0.00246
 212        7PY         0.00006   0.00033  -0.00048   0.00000  -0.00045
 213        7PZ        -0.00028   0.00148   0.00033  -0.00048  -0.00192
 214        8D 0       -0.00001   0.00003  -0.00001   0.00001  -0.00000
 215        8D+1        0.00001  -0.00014   0.00000   0.00000  -0.00008
 216        8D-1        0.00002  -0.00013  -0.00000  -0.00000   0.00002
 217        8D+2       -0.00001   0.00012  -0.00000   0.00001   0.00006
 218        8D-2        0.00002  -0.00013  -0.00001   0.00001  -0.00004
 219        9D 0        0.00000   0.00016   0.00016  -0.00008   0.00005
 220        9D+1       -0.00002   0.00060  -0.00009   0.00004  -0.00145
 221        9D-1        0.00010  -0.00068  -0.00014   0.00000   0.00025
 222        9D+2       -0.00000  -0.00035  -0.00000  -0.00002   0.00094
 223        9D-2        0.00002  -0.00017   0.00008  -0.00006  -0.00048
 224       10F 0       -0.00002   0.00013   0.00001  -0.00000   0.00018
 225       10F+1        0.00001  -0.00004  -0.00002  -0.00000   0.00014
 226       10F-1        0.00002  -0.00017  -0.00003   0.00001  -0.00006
 227       10F+2        0.00002  -0.00008  -0.00001  -0.00000  -0.00030
 228       10F-2       -0.00002   0.00016   0.00001   0.00000   0.00016
 229       10F+3       -0.00001   0.00008   0.00000   0.00000   0.00016
 230       10F-3       -0.00002   0.00013   0.00001   0.00000  -0.00011
 231 9   H  1S         -0.00006   0.00031   0.00001   0.00000   0.00006
 232        2S          0.00074  -0.00330   0.00012  -0.00020  -0.00024
 233        3S          0.00013  -0.00056   0.00006  -0.00002   0.00041
 234        4PX         0.00004  -0.00041   0.00000  -0.00002   0.00004
 235        4PY        -0.00002   0.00023  -0.00000  -0.00000   0.00006
 236        4PZ         0.00002  -0.00003   0.00001  -0.00002  -0.00016
 237        5PX         0.00026  -0.00142  -0.00001  -0.00011  -0.00034
 238        5PY        -0.00026   0.00104   0.00004   0.00008   0.00007
 239        5PZ         0.00011  -0.00049   0.00001   0.00006   0.00021
 240        6D 0       -0.00007   0.00058   0.00003   0.00002  -0.00005
 241        6D+1        0.00005  -0.00039  -0.00000  -0.00001  -0.00006
 242        6D-1       -0.00003   0.00019   0.00000   0.00000   0.00011
 243        6D+2        0.00004  -0.00038  -0.00002  -0.00002   0.00001
 244        6D-2       -0.00012   0.00094   0.00004   0.00002   0.00005
 245 10  H  1S          0.00035   0.00004   0.00000  -0.00002  -0.00002
 246        2S         -0.00335  -0.00122   0.00026   0.00041   0.00001
 247        3S         -0.00054   0.00004   0.00007  -0.00008   0.00045
 248        4PX         0.00012   0.00005  -0.00001   0.00000   0.00013
 249        4PY        -0.00023  -0.00003   0.00001   0.00000   0.00011
 250        4PZ        -0.00036  -0.00008   0.00000   0.00001  -0.00006
 251        5PX         0.00078   0.00020  -0.00008  -0.00009  -0.00005
 252        5PY        -0.00053  -0.00024  -0.00000  -0.00002  -0.00026
 253        5PZ        -0.00154  -0.00050   0.00006   0.00014  -0.00018
 254        6D 0       -0.00071  -0.00011  -0.00001   0.00001  -0.00002
 255        6D+1        0.00067   0.00011  -0.00001  -0.00001   0.00012
 256        6D-1       -0.00065  -0.00009  -0.00001  -0.00001   0.00005
 257        6D+2       -0.00005  -0.00001   0.00001   0.00000  -0.00005
 258        6D-2        0.00036   0.00005  -0.00000   0.00000  -0.00004
 259 11  H  1S         -0.00001  -0.00001  -0.00004   0.00031   0.00006
 260        2S          0.00036  -0.00013   0.00055  -0.00333  -0.00024
 261        3S          0.00010  -0.00000   0.00010  -0.00056   0.00041
 262        4PX        -0.00003   0.00001  -0.00002   0.00042  -0.00004
 263        4PY         0.00002   0.00001   0.00001  -0.00023  -0.00006
 264        4PZ         0.00001  -0.00002   0.00001  -0.00003  -0.00016
 265        5PX        -0.00010   0.00008  -0.00018   0.00143   0.00034
 266        5PY         0.00004  -0.00006   0.00019  -0.00105  -0.00007
 267        5PZ         0.00004   0.00007   0.00009  -0.00049   0.00021
 268        6D 0       -0.00001   0.00000  -0.00003   0.00058  -0.00005
 269        6D+1       -0.00003  -0.00000  -0.00003   0.00039   0.00006
 270        6D-1        0.00001   0.00000   0.00002  -0.00019  -0.00011
 271        6D+2        0.00001  -0.00001   0.00001  -0.00038   0.00001
 272        6D-2       -0.00003   0.00000  -0.00006   0.00095   0.00005
 273 12  H  1S         -0.00006   0.00034   0.00003  -0.00000  -0.00002
 274        2S          0.00078  -0.00331  -0.00109   0.00034   0.00000
 275        3S         -0.00003  -0.00054   0.00006   0.00007   0.00045
 276        4PX         0.00003  -0.00023  -0.00002   0.00001   0.00011
 277        4PY         0.00001  -0.00012  -0.00005   0.00001  -0.00013
 278        4PZ        -0.00005   0.00036   0.00007  -0.00001   0.00006
 279        5PX         0.00004  -0.00053  -0.00023   0.00001  -0.00026
 280        5PY         0.00018  -0.00076  -0.00017   0.00010   0.00005
 281        5PZ        -0.00032   0.00153   0.00045  -0.00009   0.00018
 282        6D 0        0.00009  -0.00072  -0.00008  -0.00000  -0.00002
 283        6D+1       -0.00006   0.00065   0.00007   0.00000  -0.00005
 284        6D-1       -0.00008   0.00066   0.00008  -0.00002   0.00012
 285        6D+2       -0.00001   0.00005   0.00000  -0.00001   0.00005
 286        6D-2        0.00004  -0.00036  -0.00004   0.00001   0.00004
 287 13  H  1S         -0.00001  -0.00005   0.00031   0.00000   0.00006
 288        2S         -0.00016   0.00063  -0.00333   0.00020  -0.00024
 289        3S         -0.00001   0.00012  -0.00056   0.00007   0.00041
 290        4PX        -0.00001  -0.00002   0.00023  -0.00001   0.00006
 291        4PY         0.00001  -0.00003   0.00042  -0.00001  -0.00004
 292        4PZ         0.00002  -0.00001   0.00003  -0.00001   0.00016
 293        5PX         0.00006  -0.00022   0.00105   0.00002   0.00007
 294        5PY         0.00008  -0.00021   0.00143  -0.00002   0.00034
 295        5PZ        -0.00006  -0.00010   0.00049  -0.00003  -0.00021
 296        6D 0        0.00000  -0.00005   0.00058   0.00002  -0.00005
 297        6D+1        0.00000   0.00003  -0.00019   0.00000  -0.00011
 298        6D-1        0.00000   0.00004  -0.00039   0.00001  -0.00006
 299        6D+2        0.00000  -0.00002   0.00038   0.00001  -0.00001
 300        6D-2        0.00000   0.00009  -0.00094  -0.00002  -0.00005
                          11        12        13        14        15
                           O         O         O         O         O
     Eigenvalues --    -2.05769  -2.05766  -2.05754  -1.34272  -1.33600
   1 1   Cr 1S         -0.00000  -0.00000   0.00000  -0.00882  -0.00000
   2        2S          0.00000  -0.00000  -0.00000   0.01164   0.00001
   3        3S         -0.00000  -0.00000   0.00000  -0.11875  -0.00005
   4        4S         -0.00000  -0.00000   0.00000  -0.00282   0.00000
   5        5S         -0.00000   0.00000   0.00000  -0.00420  -0.00000
   6        6S          0.00000   0.00000   0.00000   0.03462   0.00002
   7        7S         -0.00000  -0.00000   0.00000   0.00440  -0.00000
   8        8PX         0.01444   0.34773  -0.00052  -0.00003  -0.00131
   9        8PY         0.34729  -0.01439   0.01750  -0.00002   0.00194
  10        8PZ        -0.01747   0.00124   0.34770  -0.00002   0.03465
  11        9PX        -0.02086  -0.49128   0.00071   0.00004   0.00173
  12        9PY        -0.49065   0.02080  -0.02472   0.00002  -0.00246
  13        9PZ         0.02465  -0.00175  -0.49071   0.00002  -0.04422
  14       10PX        -0.00057   0.03114  -0.00014   0.00000   0.00038
  15       10PY         0.03110   0.00058   0.00156   0.00000  -0.00033
  16       10PZ        -0.00160   0.00011   0.03183   0.00001  -0.00688
  17       11PX        -0.00080   0.01289  -0.00009   0.00001   0.00039
  18       11PY         0.01287   0.00081   0.00065   0.00001  -0.00072
  19       11PZ        -0.00070   0.00005   0.01403   0.00001  -0.01494
  20       12PX         0.02586   0.62531  -0.00094  -0.00006  -0.00265
  21       12PY         0.62453  -0.02578   0.03147  -0.00004   0.00397
  22       12PZ        -0.03142   0.00223   0.62546  -0.00003   0.07060
  23       13PX        -0.00029  -0.00027  -0.00001  -0.00000  -0.00003
  24       13PY        -0.00027   0.00029  -0.00002  -0.00000   0.00012
  25       13PZ         0.00002  -0.00000  -0.00051  -0.00000   0.00205
  26       14D 0       -0.00001  -0.00001  -0.00000  -0.00030   0.00000
  27       14D+1        0.00137  -0.00329   0.00007  -0.00001  -0.00112
  28       14D-1        0.00329   0.00137   0.00015   0.00001  -0.00065
  29       14D+2        0.00015  -0.00001  -0.00317  -0.00001   0.01851
  30       14D-2       -0.00007   0.00000   0.00143   0.00001  -0.01030
  31       15D 0        0.00001   0.00001   0.00000  -0.00086  -0.00000
  32       15D+1       -0.00201   0.00519  -0.00011  -0.00000  -0.00054
  33       15D-1       -0.00518  -0.00201  -0.00024   0.00000  -0.00022
  34       15D+2       -0.00022   0.00001   0.00465  -0.00001   0.00837
  35       15D-2        0.00010   0.00000  -0.00211   0.00000  -0.00323
  36       16D 0        0.00000   0.00000  -0.00000  -0.00042   0.00000
  37       16D+1        0.00043   0.00060   0.00002  -0.00001  -0.00100
  38       16D-1       -0.00060   0.00043  -0.00003   0.00001  -0.00056
  39       16D+2       -0.00003  -0.00000   0.00060  -0.00001   0.01640
  40       16D-2       -0.00002   0.00000   0.00048   0.00000  -0.00866
  41       17D 0        0.00000   0.00000   0.00000  -0.00009  -0.00000
  42       17D+1       -0.00088   0.00157  -0.00005   0.00000   0.00016
  43       17D-1       -0.00157  -0.00088  -0.00007  -0.00000   0.00017
  44       17D+2       -0.00009   0.00001   0.00199   0.00000  -0.00450
  45       17D-2        0.00002   0.00000  -0.00051  -0.00000   0.00410
  46       18F 0        0.00022  -0.00001  -0.00470   0.00000  -0.00125
  47       18F+1        0.00012   0.00288   0.00000   0.00000  -0.00003
  48       18F-1        0.00288  -0.00012   0.00013   0.00000   0.00004
  49       18F+2       -0.00000   0.00000   0.00000   0.00141   0.00000
  50       18F-2       -0.00001   0.00001  -0.00000  -0.00072  -0.00000
  51       18F+3       -0.00063   0.00371  -0.00004   0.00000  -0.00006
  52       18F-3       -0.00370  -0.00063  -0.00018   0.00000  -0.00002
  53       19F 0        0.00022  -0.00001  -0.00471   0.00000  -0.00418
  54       19F+1        0.00016   0.00301   0.00001   0.00001  -0.00009
  55       19F-1        0.00300  -0.00016   0.00013   0.00001   0.00011
  56       19F+2       -0.00000   0.00000   0.00000   0.00636   0.00000
  57       19F-2       -0.00001   0.00001  -0.00000  -0.00276  -0.00000
  58       19F+3       -0.00089   0.00367  -0.00005   0.00000  -0.00021
  59       19F-3       -0.00367  -0.00090  -0.00018   0.00001  -0.00002
  60       20G 0        0.00000   0.00000  -0.00000  -0.00053  -0.00000
  61       20G+1       -0.00011   0.00023  -0.00001   0.00000   0.00001
  62       20G-1       -0.00023  -0.00011  -0.00001  -0.00000   0.00001
  63       20G+2        0.00003  -0.00000  -0.00062  -0.00000   0.00051
  64       20G-2       -0.00002   0.00000   0.00028   0.00000  -0.00016
  65       20G+3       -0.00030  -0.00058  -0.00001   0.00000  -0.00000
  66       20G-3       -0.00058   0.00030  -0.00003   0.00000   0.00004
  67       20G+4        0.00000  -0.00000   0.00000   0.00027   0.00000
  68       20G-4       -0.00000  -0.00000   0.00000  -0.00042  -0.00000
  69 2   O  1S          0.00835   0.00159  -0.00539  -0.10493   0.09848
  70        2S         -0.01699  -0.00309   0.01096   0.23809  -0.22439
  71        3S         -0.00382  -0.00081   0.00248   0.07241  -0.06827
  72        4S         -0.02227  -0.00173   0.01304   0.14494  -0.13285
  73        5PX         0.00155  -0.00107  -0.00107   0.00108  -0.00137
  74        5PY         0.00519   0.00130  -0.00433   0.01952  -0.02000
  75        5PZ        -0.00485  -0.00098   0.00179  -0.00860   0.00916
  76        6PX         0.00236  -0.00159  -0.00191   0.00052  -0.00072
  77        6PY         0.00752   0.00179  -0.00646   0.02164  -0.02200
  78        6PZ        -0.00714  -0.00156   0.00257  -0.00888   0.00920
  79        7PX         0.00172  -0.00199  -0.00267  -0.00284   0.00161
  80        7PY         0.00508   0.00121  -0.00537  -0.00674   0.00454
  81        7PZ        -0.00560  -0.00195   0.00042   0.00589  -0.00079
  82        8D 0       -0.00005  -0.00005  -0.00009   0.00015  -0.00021
  83        8D+1        0.00018  -0.00006  -0.00010   0.00093  -0.00089
  84        8D-1        0.00058   0.00014  -0.00030  -0.00033   0.00031
  85        8D+2        0.00031   0.00011  -0.00029  -0.00040   0.00032
  86        8D-2       -0.00014   0.00005   0.00014   0.00063  -0.00061
  87        9D 0       -0.00094   0.00017  -0.00089   0.00063  -0.00043
  88        9D+1        0.00064  -0.00061  -0.00010   0.00269  -0.00243
  89        9D-1        0.00414   0.00081  -0.00246  -0.00184   0.00168
  90        9D+2        0.00211   0.00106  -0.00217  -0.00165   0.00179
  91        9D-2       -0.00200   0.00092   0.00112   0.00233  -0.00198
  92       10F 0        0.00037   0.00005  -0.00039  -0.00053   0.00045
  93       10F+1        0.00024  -0.00008  -0.00005  -0.00085   0.00078
  94       10F-1        0.00049   0.00006   0.00010   0.00013  -0.00010
  95       10F+2        0.00063   0.00023  -0.00046  -0.00029   0.00028
  96       10F-2       -0.00054   0.00023   0.00024   0.00084  -0.00078
  97       10F+3       -0.00023   0.00020   0.00022  -0.00060   0.00051
  98       10F-3       -0.00023  -0.00023   0.00032   0.00025  -0.00026
  99 3   H  1S         -0.00069   0.00021   0.00080   0.04240  -0.04053
 100        2S          0.00215  -0.00186  -0.00279   0.03653  -0.03474
 101        3S         -0.00142  -0.00060   0.00076   0.00236  -0.00247
 102        4PX         0.00025  -0.00005  -0.00010   0.00289  -0.00287
 103        4PY         0.00020   0.00007  -0.00022  -0.00188   0.00173
 104        4PZ        -0.00003   0.00005   0.00002   0.00588  -0.00565
 105        5PX         0.00032  -0.00009  -0.00024   0.00378  -0.00317
 106        5PY        -0.00073   0.00039   0.00076  -0.00045   0.00098
 107        5PZ         0.00122  -0.00060  -0.00121   0.00597  -0.00609
 108        6D 0       -0.00002  -0.00000  -0.00013   0.00102  -0.00103
 109        6D+1        0.00021  -0.00004  -0.00016   0.00106  -0.00104
 110        6D-1       -0.00004   0.00017   0.00001  -0.00058   0.00065
 111        6D+2        0.00009  -0.00001  -0.00001   0.00022  -0.00018
 112        6D-2        0.00005   0.00004  -0.00009  -0.00030   0.00033
 113 4   O  1S         -0.00778  -0.00162  -0.00617  -0.10512   0.11156
 114        2S          0.01584   0.00316   0.01255   0.23852  -0.25418
 115        3S          0.00356   0.00083   0.00284   0.07254  -0.07732
 116        4S          0.02089   0.00181   0.01515   0.14519  -0.15128
 117        5PX         0.00143  -0.00107   0.00122  -0.00109   0.00156
 118        5PY         0.00476   0.00134   0.00481  -0.01959   0.02269
 119        5PZ         0.00464   0.00098   0.00223  -0.00854   0.01031
 120        6PX         0.00216  -0.00158   0.00214  -0.00053   0.00083
 121        6PY         0.00688   0.00184   0.00716  -0.02172   0.02495
 122        6PZ         0.00683   0.00157   0.00323  -0.00882   0.01041
 123        7PX         0.00145  -0.00198   0.00284   0.00282  -0.00201
 124        7PY         0.00455   0.00126   0.00583   0.00675  -0.00453
 125        7PZ         0.00552   0.00195   0.00094   0.00590  -0.00110
 126        8D 0        0.00005   0.00005  -0.00009   0.00014  -0.00022
 127        8D+1        0.00017  -0.00006   0.00011  -0.00094   0.00101
 128        8D-1        0.00055   0.00014   0.00035   0.00033  -0.00035
 129        8D+2       -0.00028  -0.00011  -0.00032  -0.00040   0.00038
 130        8D-2        0.00012  -0.00005   0.00016   0.00063  -0.00068
 131        9D 0        0.00100  -0.00018  -0.00081   0.00061  -0.00051
 132        9D+1        0.00061  -0.00061   0.00016  -0.00270   0.00276
 133        9D-1        0.00388   0.00083   0.00284   0.00185  -0.00196
 134        9D+2       -0.00190  -0.00107  -0.00236  -0.00165   0.00197
 135        9D-2        0.00188  -0.00092   0.00131   0.00233  -0.00226
 136       10F 0       -0.00033  -0.00006  -0.00042  -0.00052   0.00052
 137       10F+1        0.00024  -0.00007   0.00008   0.00085  -0.00089
 138       10F-1        0.00049   0.00006  -0.00006  -0.00013   0.00012
 139       10F+2       -0.00059  -0.00023  -0.00052  -0.00029   0.00031
 140       10F-2        0.00052  -0.00023   0.00029   0.00085  -0.00090
 141       10F+3       -0.00020   0.00020  -0.00025   0.00060  -0.00058
 142       10F-3       -0.00020  -0.00023  -0.00034  -0.00026   0.00029
 143 5   H  1S          0.00107   0.00039   0.00031   0.04321  -0.04647
 144        2S         -0.00305  -0.00055   0.00067   0.03729  -0.04157
 145        3S          0.00100   0.00055   0.00122   0.00240  -0.00470
 146        4PX         0.00005  -0.00002  -0.00005   0.00405  -0.00432
 147        4PY         0.00013   0.00010   0.00012   0.00534  -0.00576
 148        4PZ         0.00026   0.00000   0.00018  -0.00183   0.00210
 149        5PX        -0.00093  -0.00012   0.00003   0.00453  -0.00553
 150        5PY        -0.00140  -0.00019  -0.00010   0.00471  -0.00573
 151        5PZ        -0.00018   0.00001   0.00008  -0.00305   0.00254
[...]
 291         V                 6.900243         10.143089
 292         V                 7.339338         10.796783
 293         V                 7.344655         10.748934
 294         V                 7.366940         10.765896
 295         V                 7.367126         10.766055
 296         V                 8.411874         20.804184
 297         V                12.099625         33.640953
 298         V                12.100268         33.642335
 299         V                12.160848         33.926835
 300         V                12.174986         33.904764
 Total kinetic energy from orbitals= 1.347701523457D+03
 Calling FoFJK, ICntrl=      2527 FMM=F ISym2X=0 I1Cent= 4 IOpClX= 0 NMat=1 NMatS=1 NMatT=0.
 ***** Axes restored to original set *****
 -------------------------------------------------------------------
 Center     Atomic                   Forces (Hartrees/Bohr)
 Number     Number              X              Y              Z
 -------------------------------------------------------------------
      1       24          -0.000000000   -0.000000000   -0.000000000
      2        8          -0.000000000   -0.000000000   -0.000000000
      3        1          -0.000008604   -0.000003576   -0.000006287
      4        8          -0.000000000   -0.000000000   -0.000000000
      5        1           0.000003860   -0.000000442    0.000015487
      6        8          -0.000000000   -0.000000000   -0.000000000
      7        1          -0.000008036    0.000001963   -0.000000213
      8        8          -0.000000000   -0.000000000   -0.000000000
      9        1          -0.000013797   -0.000008599   -0.000016421
     10        1           0.000012362   -0.000006818   -0.000017217
     11        1           0.000006172    0.000009125   -0.000008650
     12        1           0.000017641   -0.000003652   -0.000000065
     13        1          -0.000002086    0.000010461    0.000016980
 -------------------------------------------------------------------
 Cartesian Forces:  Max     0.000017641 RMS     0.000007848

 GradGradGradGradGradGradGradGradGradGradGradGradGradGradGradGradGradGrad
 Berny optimization.
 FormGI is forming the generalized inverse of G from B-inverse, IUseBI=4.
 Internal  Forces:  Max     0.000037227 RMS     0.000012657
 Search for a local minimum.
 Step number   1 out of a maximum of   69
 All quantities printed in internal units (Hartrees-Bohrs-Radians)
 Mixed Optimization -- En-DIIS/RFO-DIIS
 Second derivative matrix not updated -- first step.
 ITU=  0
     Eigenvalues ---    0.04869   0.04869   0.04869   0.04869   0.04924
     Eigenvalues ---    0.04924   0.04925   0.04925   0.16000   0.16000
     Eigenvalues ---    0.16000   0.16000   0.16000   0.16000   0.16000
     Eigenvalues ---    0.16000   0.50133   0.50134   0.50134   0.50135
     Eigenvalues ---    0.50492   0.50493   0.50495   0.504961000.00000
     Eigenvalues --- 1000.000001000.000001000.000001000.000001000.00000
     Eigenvalues --- 1000.000001000.000001000.000001000.000001000.00000
     Eigenvalues --- 1000.000001000.000001000.000001000.000001000.00000
     Eigenvalues --- 1000.000001000.000001000.000001000.000001000.00000
     Eigenvalues --- 1000.000001000.000001000.000001000.000001000.00000
     Eigenvalues --- 1000.000001000.000001000.000001000.000001000.00000
     Eigenvalues --- 1000.000001000.000001000.000001000.00000
 RFO step:  Lambda=-4.20380987D-08 EMin= 4.86931000D-02
 Linear search not attempted -- first point.
 Iteration  1 RMS(Cart)=  0.00011805 RMS(Int)=  0.00000001
 Iteration  2 RMS(Cart)=  0.00000001 RMS(Int)=  0.00000000
 Variable       Old X    -DE/DX   Delta X   Delta X   Delta X     New X
                                 (Linear)    (Quad)   (Total)
    X1       -0.00001   0.00000   0.00000   0.00000   0.00000  -0.00001
    Y1       -0.00002   0.00000   0.00000   0.00000  -0.00000  -0.00002
    Z1       -0.00003  -0.00000   0.00000   0.00000   0.00000  -0.00003
    X2       -0.64580  -0.00002   0.00000   0.00000   0.00000  -0.64580
    Y2       -2.68300   0.00000   0.00000   0.00000   0.00000  -2.68300
    Z2       -1.95620   0.00002   0.00000   0.00000   0.00000  -1.95620
    X4        0.64417   0.00003   0.00000   0.00000   0.00000   0.64417
    Y4        2.68804  -0.00001   0.00000   0.00000   0.00000   2.68804
    Z4       -1.94975   0.00000   0.00000   0.00000   0.00000  -1.94975
    X6       -2.68472  -0.00000   0.00000   0.00000   0.00000  -2.68472
    Y6        0.64242   0.00002   0.00000   0.00000   0.00000   0.64242
    Z6        1.95487  -0.00001   0.00000   0.00000   0.00000   1.95487
    X8        2.68632   0.00001   0.00000   0.00000   0.00000   2.68632
    Y8       -0.64755  -0.00002   0.00000   0.00000   0.00000  -0.64755
    Z8        1.95097  -0.00002   0.00000   0.00000   0.00000   1.95097
    R1        1.86430   0.00000   0.00000   0.00001   0.00001   1.86430
    R2        1.86071  -0.00000   0.00000  -0.00000  -0.00000   1.86071
    R3        1.86069   0.00001   0.00000   0.00001   0.00001   1.86070
    R4        1.86431   0.00001   0.00000   0.00001   0.00001   1.86433
    R5        1.86430   0.00000   0.00000   0.00000   0.00000   1.86430
    R6        1.86070   0.00000   0.00000   0.00001   0.00001   1.86070
    R7        1.86072  -0.00000   0.00000  -0.00000  -0.00000   1.86072
    R8        1.86429   0.00000   0.00000   0.00001   0.00001   1.86430
    A1        2.26008   0.00002   0.00000   0.00014   0.00014   2.26023
    A2        2.17191  -0.00003   0.00000  -0.00018  -0.00018   2.17172
    A3        1.83429   0.00001   0.00000   0.00005   0.00005   1.83434
    A4        2.17147  -0.00002   0.00000  -0.00012  -0.00012   2.17135
    A5        2.26052   0.00001   0.00000   0.00009   0.00009   2.26060
    A6        1.83424   0.00001   0.00000   0.00005   0.00005   1.83430
    A7        2.26040   0.00002   0.00000   0.00011   0.00011   2.26050
    A8        2.17163  -0.00002   0.00000  -0.00012  -0.00012   2.17152
    A9        1.83429   0.00000   0.00000   0.00002   0.00002   1.83431
   A10        2.17204  -0.00004   0.00000  -0.00023  -0.00023   2.17181
   A11        2.26000   0.00003   0.00000   0.00021   0.00021   2.26021
   A12        1.83429   0.00000   0.00000   0.00002   0.00002   1.83431
    D1        0.69334  -0.00001   0.00000  -0.00006  -0.00006   0.69328
    D2       -2.67493  -0.00000   0.00000  -0.00000  -0.00000  -2.67493
    D3        2.78773  -0.00001   0.00000  -0.00006  -0.00006   2.78767
    D4       -0.58053  -0.00000   0.00000  -0.00000  -0.00000  -0.58054
    D5       -1.40106   0.00000   0.00000  -0.00006  -0.00006  -1.40112
    D6        1.51386   0.00000   0.00000  -0.00000  -0.00000   1.51386
    D7       -2.67259  -0.00000   0.00000  -0.00003  -0.00003  -2.67263
    D8        0.69606  -0.00001   0.00000  -0.00020  -0.00020   0.69586
    D9        1.51620   0.00000   0.00000  -0.00003  -0.00003   1.51616
   D10       -1.39834  -0.00000   0.00000  -0.00020  -0.00020  -1.39853
   D11       -0.57820  -0.00001   0.00000  -0.00003  -0.00003  -0.57823
   D12        2.79045  -0.00002   0.00000  -0.00020  -0.00020   2.79026
   D13        1.40131  -0.00000   0.00000  -0.00003  -0.00003   1.40127
   D14       -1.51388  -0.00001   0.00000  -0.00007  -0.00007  -1.51395
   D15       -2.78748  -0.00000   0.00000  -0.00003  -0.00003  -2.78752
   D16        0.58051  -0.00000   0.00000  -0.00007  -0.00007   0.58044
   D17       -0.69309   0.00000   0.00000  -0.00003  -0.00003  -0.69312
   D18        2.67491  -0.00000   0.00000  -0.00007  -0.00007   2.67484
   D19        0.58161  -0.00000   0.00000  -0.00007  -0.00007   0.58153
   D20       -2.78637  -0.00000   0.00000  -0.00007  -0.00007  -2.78644
   D21       -1.51279  -0.00000   0.00000  -0.00007  -0.00007  -1.51286
   D22        1.40242  -0.00000   0.00000  -0.00007  -0.00007   1.40235
   D23        2.67600  -0.00001   0.00000  -0.00007  -0.00007   2.67593
   D24       -0.69197  -0.00001   0.00000  -0.00007  -0.00007  -0.69205
         Item               Value     Threshold  Converged?
 Maximum Force            0.000037     0.000450     YES
 RMS     Force            0.000012     0.000300     YES
 Maximum Displacement     0.000370     0.001800     YES
 RMS     Displacement     0.000118     0.001200     YES
 Predicted change in Energy=-2.101906D-08
 Optimization completed.
    -- Stationary point found.
                           ----------------------------
                           !   Optimized Parameters   !
                           ! (Angstroms and Degrees)  !
 --------------------------                            --------------------------
 ! Name  Definition              Value          Derivative Info.                !
 --------------------------------------------------------------------------------
 ! X1    R(1,-1)                 0.0            -DE/DX =    0.0                 !
 ! Y1    R(1,-2)                 0.0            -DE/DX =    0.0                 !
 ! Z1    R(1,-3)                 0.0            -DE/DX =    0.0                 !
 ! X2    R(2,-1)                -0.3417         -DE/DX =    0.0                 !
 ! Y2    R(2,-2)                -1.4198         -DE/DX =    0.0                 !
 ! Z2    R(2,-3)                -1.0352         -DE/DX =    0.0                 !
 ! X4    R(4,-1)                 0.3409         -DE/DX =    0.0                 !
 ! Y4    R(4,-2)                 1.4224         -DE/DX =    0.0                 !
 ! Z4    R(4,-3)                -1.0318         -DE/DX =    0.0                 !
 ! X6    R(6,-1)                -1.4207         -DE/DX =    0.0                 !
 ! Y6    R(6,-2)                 0.34           -DE/DX =    0.0                 !
 ! Z6    R(6,-3)                 1.0345         -DE/DX =    0.0                 !
 ! X8    R(8,-1)                 1.4215         -DE/DX =    0.0                 !
 ! Y8    R(8,-2)                -0.3427         -DE/DX =    0.0                 !
 ! Z8    R(8,-3)                 1.0324         -DE/DX =    0.0                 !
 ! R1    R(2,3)                  0.9865         -DE/DX =    0.0                 !
 ! R2    R(2,13)                 0.9846         -DE/DX =    0.0                 !
 ! R3    R(4,5)                  0.9846         -DE/DX =    0.0                 !
 ! R4    R(4,10)                 0.9866         -DE/DX =    0.0                 !
 ! R5    R(6,7)                  0.9865         -DE/DX =    0.0                 !
 ! R6    R(6,11)                 0.9846         -DE/DX =    0.0                 !
 ! R7    R(8,9)                  0.9847         -DE/DX =    0.0                 !
 ! R8    R(8,12)                 0.9865         -DE/DX =    0.0                 !
 ! A1    A(1,2,3)              129.4932         -DE/DX =    0.0                 !
 ! A2    A(1,2,13)             124.4411         -DE/DX =    0.0                 !
 ! A3    A(3,2,13)             105.0973         -DE/DX =    0.0                 !
 ! A4    A(1,4,5)              124.4159         -DE/DX =    0.0                 !
 ! A5    A(1,4,10)             129.5181         -DE/DX =    0.0                 !
 ! A6    A(5,4,10)             105.0944         -DE/DX =    0.0                 !
 ! A7    A(1,6,7)              129.5113         -DE/DX =    0.0                 !
 ! A8    A(1,6,11)             124.4255         -DE/DX =    0.0                 !
 ! A9    A(7,6,11)             105.0973         -DE/DX =    0.0                 !
 ! A10   A(1,8,9)              124.4486         -DE/DX =    0.0                 !
 ! A11   A(1,8,12)             129.4885         -DE/DX =    0.0                 !
 ! A12   A(9,8,12)             105.097          -DE/DX =    0.0                 !
 ! D1    D(4,1,2,3)             39.7254         -DE/DX =    0.0                 !
 ! D2    D(4,1,2,13)          -153.2621         -DE/DX =    0.0                 !
 ! D3    D(6,1,2,3)            159.7254         -DE/DX =    0.0                 !
 ! D4    D(6,1,2,13)           -33.262          -DE/DX =    0.0                 !
 ! D5    D(8,1,2,3)            -80.2746         -DE/DX =    0.0                 !
 ! D6    D(8,1,2,13)            86.738          -DE/DX =    0.0                 !
 ! D7    D(2,1,4,5)           -153.1283         -DE/DX =    0.0                 !
 ! D8    D(2,1,4,10)            39.8812         -DE/DX =    0.0                 !
 ! D9    D(6,1,4,5)             86.8717         -DE/DX =    0.0                 !
 ! D10   D(6,1,4,10)           -80.1188         -DE/DX =    0.0                 !
 ! D11   D(8,1,4,5)            -33.1283         -DE/DX =    0.0                 !
 ! D12   D(8,1,4,10)           159.8812         -DE/DX =    0.0                 !
 ! D13   D(2,1,6,7)             80.289          -DE/DX =    0.0                 !
 ! D14   D(2,1,6,11)           -86.7391         -DE/DX =    0.0                 !
 ! D15   D(4,1,6,7)           -159.711          -DE/DX =    0.0                 !
 ! D16   D(4,1,6,11)            33.2609         -DE/DX =    0.0                 !
 ! D17   D(8,1,6,7)            -39.711          -DE/DX =    0.0                 !
 ! D18   D(8,1,6,11)           153.2609         -DE/DX =    0.0                 !
 ! D19   D(2,1,8,9)             33.3237         -DE/DX =    0.0                 !
 ! D20   D(2,1,8,12)          -159.6471         -DE/DX =    0.0                 !
 ! D21   D(4,1,8,9)            -86.6763         -DE/DX =    0.0                 !
 ! D22   D(4,1,8,12)            80.3529         -DE/DX =    0.0                 !
 ! D23   D(6,1,8,9)            153.3237         -DE/DX =    0.0                 !
 ! D24   D(6,1,8,12)           -39.6471         -DE/DX =    0.0                 !
 --------------------------------------------------------------------------------
 GradGradGradGradGradGradGradGradGradGradGradGradGradGradGradGradGradGrad

                          Input orientation:                          
 ---------------------------------------------------------------------
 Center     Atomic      Atomic             Coordinates (Angstroms)
 Number     Number       Type             X           Y           Z
 ---------------------------------------------------------------------
      1         24           0       -0.000005   -0.000013   -0.000015
      2          8           0       -0.341743   -1.419784   -1.035179
      3          1           0        0.090330   -1.701732   -1.876064
      4          8           0        0.340878    1.422448   -1.031764
      5          1           0        0.901789    2.184944   -0.760696
      6          8           0       -1.420694    0.339951    1.034474
      7          1           0       -1.703530   -0.093249    1.874481
      8          8           0        1.421540   -0.342667    1.032409
      9          1           0        2.185812   -0.900799    0.760534
     10          1           0       -0.093001    1.708037   -1.870495
     11          1           0       -2.184598    0.899562    0.764664
     12          1           0        1.704304    0.088021    1.873727
     13          1           0       -0.900841   -2.184059   -0.765316
 ---------------------------------------------------------------------
                    Distance matrix (angstroms):
                    1          2          3          4          5
     1  Cr   0.000000
     2  O    1.790000   0.000000
     3  H    2.534476   0.986544   0.000000
     4  O    1.790000   2.923058   3.245938   0.000000
     5  H    2.483124   3.823060   4.124168   0.984632   0.000000
     6  O    1.790000   2.923058   3.863016   2.923059   3.467068
     7  H    2.534646   3.475670   4.457773   3.863056   4.349944
     8  O    1.790000   2.923058   3.475398   2.923058   3.142322
     9  H    2.483474   3.143639   3.461818   3.466062   3.672148
    10  H    2.534715   3.246982   3.414698   0.986551   1.564833
    11  H    2.483227   3.466253   4.349191   3.143022   3.674876
    12  H    2.534429   3.862839   4.457472   3.475846   3.461402
    13  H    2.483394   0.984648   1.564871   3.823578   4.726276
                    6          7          8          9         10
     6  O    0.000000
     7  H    0.986545   0.000000
     8  O    2.923058   3.246131   0.000000
     9  H    3.823792   4.125530   0.984651   0.000000
    10  H    3.474662   4.456825   3.863428   4.349865   0.000000
    11  H    0.984637   1.564863   3.823487   4.726711   3.460126
    12  H    3.245525   3.412653   0.986542   1.564868   4.458022
    13  H    3.143265   3.461838   3.466409   3.674561   4.125825
                   11         12         13
    11  H    0.000000
    12  H    4.124583   0.000000
    13  H    3.673906   4.348985   0.000000
 Stoichiometry    CrH8O4(2+)
 Framework group  C1[X(CrH8O4)]
 Deg. of freedom    33
 Full point group                 C1      NOp   1
 Largest Abelian subgroup         C1      NOp   1
 Largest concise Abelian subgroup C1      NOp   1
                         Standard orientation:                         
 ---------------------------------------------------------------------
 Center     Atomic      Atomic             Coordinates (Angstroms)
 Number     Number       Type             X           Y           Z
 ---------------------------------------------------------------------
      1         24           0        0.000005    0.000013   -0.000015
      2          8           0        0.341687    1.419798   -1.035179
      3          1           0       -0.090397    1.701728   -1.876064
      4          8           0       -0.340821   -1.422461   -1.031764
      5          1           0       -0.901703   -2.184980   -0.760696
      6          8           0        1.420707   -0.339895    1.034474
      7          1           0        1.703527    0.093316    1.874481
      8          8           0       -1.421554    0.342610    1.032409
      9          1           0       -2.185848    0.900712    0.760534
     10          1           0        0.093069   -1.708033   -1.870495
     11          1           0        2.184633   -0.899476    0.764664
     12          1           0       -1.704301   -0.088088    1.873727
     13          1           0        0.900754    2.184094   -0.765316
 ---------------------------------------------------------------------
 Rotational constants (GHZ):      2.9677416      2.9676710      2.9567514
 1\1\GINC-HECTOR-MACBOOKAIR\FOpt\RPBEPBE\CC-pVTZ/def2TZV\Cr1H8O4(2+)\HE
 CTOR\08-Aug-2024\0\\# opt pbepbe/cc-pvtz/def2tzv pop=full geom=connect
 ivity output=wfx\\Cr2_tetraedrico_cc-pvtz-def2-tzv_2\\2,1\Cr,-0.000004
 73,-0.00001289,-0.00001486\O,-0.34174346,-1.41978443,-1.03517857\H,0.0
 9032999,-1.70173164,-1.87606373\O,0.34087779,1.42244755,-1.03176382\H,
 0.90178919,2.1849445,-0.76069617\O,-1.42069383,0.33995145,1.03447401\H
 ,-1.70353044,-0.0932488,1.8744813\O,1.42154048,-0.34266676,1.03240851\
 H,2.18581201,-0.90079884,0.76053426\H,-0.09300095,1.70803695,-1.870495
 32\H,-2.1845976,0.89956228,0.76466352\H,1.70430448,0.08802088,1.873727
 31\H,-0.90084087,-2.1840585,-0.7653156\\Version=EM64L-G09RevE.01\State
 =1-A\HF=-1350.0670998\RMSD=3.734e-09\RMSF=7.848e-06\Dipole=0.0002885,0
 .0003216,0.000282\Quadrupole=0.2081547,0.1999808,-0.4081356,-0.0001541
 ,0.0000858,-0.0010824\PG=C01 [X(Cr1H8O4)]\\@

 Writing a WFNX file to "Cr2_tetraedrico_cc-pvtz-def2-tzv_2.wfx"


 WE HAVE SEEN THAT MAN ON THE AVERAGE DOES NOT LIVE ABOVE
 TWO-AND-TWENTY YEARS.  DURING THESE TWO AND TWENTY
 YEARS HE IS LIABLE TO TWO AND TWENTY THOUSAND EVILS,
 MANY OF WHICH ARE INCURABLE.  YET EVEN IN THIS DREADFUL STATE
 MEN STILL STRUT AND POSE ON THE STAGE OF LIFE.
 THEY MAKE LOVE AT THE RISK OF DESTRUCTION,
 INTRIGUE, CARRY ON WAR, AND FORM PROJECTS, JUST AS IF THEY
 WERE TO LIVE IN LUXURY AND HAPPINESS FOR A THOUSAND
 AGES.

                                              -- VOLTAIRE
 Job cpu time:       0 days  0 hours  2 minutes 21.0 seconds.
 File lengths (MBytes):  RWF=     49 Int=      0 D2E=      0 Chk=      7 Scr=      1
 Normal termination of Gaussian 09 at Thu Aug  8 14:15:37 2024.
