 Entering Gaussian System, Link 0=g09
 Input=/home/scratch/M_H2O_4_tetraedrico/Opt/Mn3_tetraedrico_cc-pvtz-def2-tzv_1.gjf
 Output=/home/scratch/M_H2O_4_tetraedrico/Opt/Mn3_tetraedrico_cc-pvtz-def2-tzv_1.log
 Initial command:
 /opt/g09/l1.exe "/home/scratch/Gau-84770.inp" -scrdir="/home/scratch/"
 Entering Link 1 = /opt/g09/l1.exe PID=     84773.
  
 Copyright (c) 1988,1990,1992,1993,1995,1998,2003,2009,2015,
            Gaussian, Inc.  All Rights Reserved.
  
 This is part of the Gaussian(R) 09 program.  It is based on
 the Gaussian(R) 03 system (copyright 2003, Gaussian, Inc.),
 the Gaussian(R) 98 system (copyright 1998, Gaussian, Inc.),
 the Gaussian(R) 94 system (copyright 1995, Gaussian, Inc.),
 the Gaussian 92(TM) system (copyright 1992, Gaussian, Inc.),
 the Gaussian 90(TM) system (copyright 1990, Gaussian, Inc.),
 the Gaussian 88(TM) system (copyright 1988, Gaussian, Inc.),
 the Gaussian 86(TM) system (copyright 1986, Carnegie Mellon
 University), and the Gaussian 82(TM) system (copyright 1983,
 Carnegie Mellon University). Gaussian is a federally registered
 trademark of Gaussian, Inc.
  
 This software contains proprietary and confidential information,
 including trade secrets, belonging to Gaussian, Inc.
  
 This software is provided under written license and may be
 used, copied, transmitted, or stored only in accord with that
 written license.
  
 The following legend is applicable only to US Government
 contracts under FAR:
  
                    RESTRICTED RIGHTS LEGEND
  
 Use, reproduction and disclosure by the US Government is
 subject to restrictions as set forth in subparagraphs (a)
 and (c) of the Commercial Computer Software - Restricted
 Rights clause in FAR 52.227-19.
  
 Gaussian, Inc.
 340 Quinnipiac St., Bldg. 40, Wallingford CT 06492
  
  
 ---------------------------------------------------------------
 Warning -- This program may not be used in any manner that
 competes with the business of Gaussian, Inc. or will provide
 assistance to any competitor of Gaussian, Inc.  The licensee
 of this program is prohibited from giving any competitor of
 Gaussian, Inc. access to this program.  By using this program,
 the user acknowledges that Gaussian, Inc. is engaged in the
 business of creating and licensing software in the field of
 computational chemistry and represents and warrants to the
 licensee that it is not a competitor of Gaussian, Inc. and that
 it will not use this program in any manner prohibited above.
 ---------------------------------------------------------------
  

 Cite this work as:
 Gaussian 09, Revision E.01,
 M. J. Frisch, G. W. Trucks, H. B. Schlegel, G. E. Scuseria, 
 M. A. Robb, J. R. Cheeseman, G. Scalmani, V. Barone, B. Mennucci, 
 G. A. Petersson, H. Nakatsuji, M. Caricato, X. Li, H. P. Hratchian, 
 A. F. Izmaylov, J. Bloino, G. Zheng, J. L. Sonnenberg, M. Hada, 
 M. Ehara, K. Toyota, R. Fukuda, J. Hasegawa, M. Ishida, T. Nakajima, 
 Y. Honda, O. Kitao, H. Nakai, T. Vreven, J. A. Montgomery, Jr., 
 J. E. Peralta, F. Ogliaro, M. Bearpark, J. J. Heyd, E. Brothers, 
 K. N. Kudin, V. N. Staroverov, T. Keith, R. Kobayashi, J. Normand, 
 K. Raghavachari, A. Rendell, J. C. Burant, S. S. Iyengar, J. Tomasi, 
 M. Cossi, N. Rega, J. M. Millam, M. Klene, J. E. Knox, J. B. Cross, 
 V. Bakken, C. Adamo, J. Jaramillo, R. Gomperts, R. E. Stratmann, 
 O. Yazyev, A. J. Austin, R. Cammi, C. Pomelli, J. W. Ochterski, 
 R. L. Martin, K. Morokuma, V. G. Zakrzewski, G. A. Voth, 
 P. Salvador, J. J. Dannenberg, S. Dapprich, A. D. Daniels, 
 O. Farkas, J. B. Foresman, J. V. Ortiz, J. Cioslowski, 
 and D. J. Fox, Gaussian, Inc., Wallingford CT, 2013.
 
 ******************************************
 Gaussian 09:  EM64L-G09RevE.01 30-Nov-2015
                 8-Aug-2024 
 ******************************************
 %chk=Mn3_tetraedrico_cc-pvtz-def2-tzv_1.chk
 ------------------------------------------------------------------
 # opt pbepbe/cc-pvtz/def2tzv pop=full geom=connectivity output=wfx
 ------------------------------------------------------------------
 1/14=-1,18=20,19=15,26=3,38=1,57=2/1,3;
 2/9=110,12=2,17=6,18=5,40=1/2;
 3/5=16,6=1,11=2,16=1,25=1,30=1,71=1,74=1009,82=44/1,2,3;
 4//1;
 5/5=2,38=5/2;
 6/7=3,28=1/1;
 7//1,2,3,16;
 1/14=-1,18=20,19=15,26=3/3(2);
 2/9=110/2;
 99/6=200/99;
 2/9=110/2;
 3/5=16,6=1,11=2,16=1,25=1,30=1,71=1,74=1009,82=44/1,2,3;
 4/5=5,16=3,69=1/1;
 5/5=2,38=5/2;
 7//1,2,3,16;
 1/14=-1,18=20,19=15,26=3/3(-5);
 2/9=110/2;
 6/7=3,19=2,28=1/1;
 99/6=200,9=1/99;
 ----------------------------------
 Mn3_tetraedrico_cc-pvtz-def2-tzv_1
 ----------------------------------
 Symbolic Z-matrix:
 Charge =  3 Multiplicity = 1
 Mn                   -1    0.00001   0.00003   0.00001 
 O                    -1    0.9632    1.14709  -1.05137 
 H                    0     1.8341    1.54933  -0.78439 
 O                    -1   -1.14915   0.95787   1.054 
 H                    0    -1.5926    0.65993   1.89475 
 O                    -1   -0.95572  -1.14377  -1.06169 
 H                    0    -0.65654  -1.58337  -1.90408 
 O                    -1    1.14171  -0.96108   1.05912 
 H                    0     1.57873  -0.66628   1.90437 
 H                    0    -1.55111   1.82989   0.79029 
 H                    0    -1.82873  -1.5462   -0.80187 
 H                    0     0.67022   1.58761  -1.89541 
 H                    0     1.54522  -1.83246   0.79562 
 

 GradGradGradGradGradGradGradGradGradGradGradGradGradGradGradGradGradGrad
 Berny optimization.
 Initialization pass.
                           ----------------------------
                           !    Initial Parameters    !
                           ! (Angstroms and Degrees)  !
 --------------------------                            --------------------------
 ! Name  Definition              Value          Derivative Info.                !
 --------------------------------------------------------------------------------
 ! X1    R(1,-1)                 0.0            Frozen                          !
 ! Y1    R(1,-2)                 0.0            Frozen                          !
 ! Z1    R(1,-3)                 0.0            Frozen                          !
 ! X2    R(2,-1)                 0.9632         Frozen                          !
 ! Y2    R(2,-2)                 1.1471         Frozen                          !
 ! Z2    R(2,-3)                -1.0514         Frozen                          !
 ! X4    R(4,-1)                -1.1491         Frozen                          !
 ! Y4    R(4,-2)                 0.9579         Frozen                          !
 ! Z4    R(4,-3)                 1.054          Frozen                          !
 ! X6    R(6,-1)                -0.9557         Frozen                          !
 ! Y6    R(6,-2)                -1.1438         Frozen                          !
 ! Z6    R(6,-3)                -1.0617         Frozen                          !
 ! X8    R(8,-1)                 1.1417         Frozen                          !
 ! Y8    R(8,-2)                -0.9611         Frozen                          !
 ! Z8    R(8,-3)                 1.0591         Frozen                          !
 ! R1    R(2,3)                  0.9958         estimate D2E/DX2                !
 ! R2    R(2,12)                 0.9961         estimate D2E/DX2                !
 ! R3    R(4,5)                  0.9961         estimate D2E/DX2                !
 ! R4    R(4,10)                 0.9958         estimate D2E/DX2                !
 ! R5    R(6,7)                  0.9962         estimate D2E/DX2                !
 ! R6    R(6,11)                 0.9958         estimate D2E/DX2                !
 ! R7    R(8,9)                  0.9962         estimate D2E/DX2                !
 ! R8    R(8,13)                 0.9958         estimate D2E/DX2                !
 ! A1    A(1,2,3)              124.021          estimate D2E/DX2                !
 ! A2    A(1,2,12)             127.5306         estimate D2E/DX2                !
 ! A3    A(3,2,12)             107.8052         estimate D2E/DX2                !
 ! A4    A(1,4,5)              127.5252         estimate D2E/DX2                !
 ! A5    A(1,4,10)             124.0094         estimate D2E/DX2                !
 ! A6    A(5,4,10)             107.8028         estimate D2E/DX2                !
 ! A7    A(1,6,7)              127.5583         estimate D2E/DX2                !
 ! A8    A(1,6,11)             123.992          estimate D2E/DX2                !
 ! A9    A(7,6,11)             107.7937         estimate D2E/DX2                !
 ! A10   A(1,8,9)              127.542          estimate D2E/DX2                !
 ! A11   A(1,8,13)             124.0044         estimate D2E/DX2                !
 ! A12   A(9,8,13)             107.8016         estimate D2E/DX2                !
 ! D1    D(4,1,2,3)             89.7701         estimate D2E/DX2                !
 ! D2    D(4,1,2,12)           -79.8924         estimate D2E/DX2                !
 ! D3    D(6,1,2,3)           -150.2299         estimate D2E/DX2                !
 ! D4    D(6,1,2,12)            40.1076         estimate D2E/DX2                !
 ! D5    D(8,1,2,3)            -30.2299         estimate D2E/DX2                !
 ! D6    D(8,1,2,12)           160.1076         estimate D2E/DX2                !
 ! D7    D(2,1,4,5)           -160.2311         estimate D2E/DX2                !
 ! D8    D(2,1,4,10)            30.2603         estimate D2E/DX2                !
 ! D9    D(6,1,4,5)             79.7689         estimate D2E/DX2                !
 ! D10   D(6,1,4,10)           -89.7397         estimate D2E/DX2                !
 ! D11   D(8,1,4,5)            -40.2311         estimate D2E/DX2                !
 ! D12   D(8,1,4,10)           150.2603         estimate D2E/DX2                !
 ! D13   D(2,1,6,7)             40.2444         estimate D2E/DX2                !
 ! D14   D(2,1,6,11)          -150.1949         estimate D2E/DX2                !
 ! D15   D(4,1,6,7)            160.2444         estimate D2E/DX2                !
 ! D16   D(4,1,6,11)           -30.1949         estimate D2E/DX2                !
 ! D17   D(8,1,6,7)            -79.7556         estimate D2E/DX2                !
 ! D18   D(8,1,6,11)            89.8051         estimate D2E/DX2                !
 ! D19   D(2,1,8,9)             79.8281         estimate D2E/DX2                !
 ! D20   D(2,1,8,13)           -89.7644         estimate D2E/DX2                !
 ! D21   D(4,1,8,9)            -40.1719         estimate D2E/DX2                !
 ! D22   D(4,1,8,13)           150.2356         estimate D2E/DX2                !
 ! D23   D(6,1,8,9)           -160.1719         estimate D2E/DX2                !
 ! D24   D(6,1,8,13)            30.2356         estimate D2E/DX2                !
 --------------------------------------------------------------------------------
 Trust Radius=3.00D-01 FncErr=1.00D-07 GrdErr=1.00D-06
 Number of steps in this run=     69 maximum allowed number of steps=    100.
 GradGradGradGradGradGradGradGradGradGradGradGradGradGradGradGradGradGrad

                          Input orientation:                          
 ---------------------------------------------------------------------
 Center     Atomic      Atomic             Coordinates (Angstroms)
 Number     Number       Type             X           Y           Z
 ---------------------------------------------------------------------
      1         25           0        0.000012    0.000027    0.000013
      2          8           0        0.963204    1.147091   -1.051371
      3          1           0        1.834105    1.549329   -0.784392
      4          8           0       -1.149146    0.957866    1.053996
      5          1           0       -1.592605    0.659926    1.894747
      6          8           0       -0.955718   -1.143767   -1.061690
      7          1           0       -0.656541   -1.583373   -1.904078
      8          8           0        1.141711   -0.961080    1.059116
      9          1           0        1.578728   -0.666282    1.904370
     10          1           0       -1.551105    1.829889    0.790290
     11          1           0       -1.828726   -1.546197   -0.801869
     12          1           0        0.670216    1.587610   -1.895414
     13          1           0        1.545218   -1.832465    0.795622
 ---------------------------------------------------------------------
                    Distance matrix (angstroms):
                    1          2          3          4          5
     1  Mn   0.000000
     2  O    1.830000   0.000000
     3  H    2.525771   0.995762   0.000000
     4  O    1.830000   2.988377   3.553771   0.000000
     5  H    2.561623   3.930534   4.439725   0.996135   0.000000
     6  O    1.830000   2.988377   3.887515   2.988378   3.521286
     7  H    2.561988   3.287266   4.155820   3.930746   4.509954
     8  O    1.830000   2.988378   3.190624   2.988378   3.286704
     9  H    2.561813   3.521874   3.493364   3.286683   3.437481
    10  H    2.525648   3.190561   3.744060   0.995760   1.609460
    11  H    2.525492   3.887277   4.795719   3.190047   3.492059
    12  H    2.561686   0.996146   1.609494   3.522170   4.510685
    13  H    2.525606   3.553573   3.743852   3.887454   4.155240
                    6          7          8          9         10
     6  O    0.000000
     7  H    0.996182   0.000000
     8  O    2.988378   3.521573   0.000000
     9  H    3.930512   4.510184   0.996165   0.000000
    10  H    3.553442   4.439620   3.887548   4.155466   0.000000
    11  H    0.995791   1.609430   3.553748   4.439451   3.742994
    12  H    3.286210   3.437367   3.930315   4.510408   3.493705
    13  H    3.190392   3.492589   0.995771   1.609480   4.795840
                   11         12         13
    11  H    0.000000
    12  H    4.154672   0.000000
    13  H    3.743986   4.438943   0.000000
 Stoichiometry    H8MnO4(3+)
 Framework group  C1[X(H8MnO4)]
 Deg. of freedom    33
 Full point group                 C1      NOp   1
 Largest Abelian subgroup         C1      NOp   1
 Largest concise Abelian subgroup C1      NOp   1
                         Standard orientation:                         
 ---------------------------------------------------------------------
 Center     Atomic      Atomic             Coordinates (Angstroms)
 Number     Number       Type             X           Y           Z
 ---------------------------------------------------------------------
      1         25           0       -0.000012    0.000027   -0.000013
      2          8           0       -0.963190    1.147103    1.051371
      3          1           0       -1.834086    1.549351    0.784392
      4          8           0        1.149157    0.957852   -1.053996
      5          1           0        1.592613    0.659907   -1.894747
      6          8           0        0.955705   -1.143779    1.061690
      7          1           0        0.656522   -1.583381    1.904078
      8          8           0       -1.141722   -0.961066   -1.059116
      9          1           0       -1.578736   -0.666263   -1.904370
     10          1           0        1.551127    1.829871   -0.790290
     11          1           0        1.828708   -1.546219    0.801869
     12          1           0       -0.670197    1.587618    1.895414
     13          1           0       -1.545240   -1.832446   -0.795622
 ---------------------------------------------------------------------
 Rotational constants (GHZ):      2.8477657      2.8476657      2.8403438
 Standard basis: CC-pVTZ (5D, 7F)
 There are   344 symmetry adapted cartesian basis functions of A   symmetry.
 There are   300 symmetry adapted basis functions of A   symmetry.
   300 basis functions,   689 primitive gaussians,   344 cartesian basis functions
    31 alpha electrons       31 beta electrons
       nuclear repulsion energy       408.1141419505 Hartrees.
 NAtoms=   13 NActive=   13 NUniq=   13 SFac= 1.00D+00 NAtFMM=   60 NAOKFM=F Big=F
 Integral buffers will be    131072 words long.
 Raffenetti 2 integral format.
 Two-electron integral symmetry is turned on.
 Standard density basis: def2TZV (5D, 7F)
   110 Density fitting functions
 There are   110 symmetry adapted density basis functions of A   symmetry.
 One-electron integrals computed using PRISM.
 NBasis=   300 RedAO= T EigKep=  1.49D-03  NBF=   300
 NBsUse=   300 1.00D-06 EigRej= -1.00D+00 NBFU=   300
 NBasis=      300 NBas6D=      344 NTT=       45150   NTT6D=    59340
 NDBShl=       68 NDBF=        110 NDBF6D=      113  NNucDB=        0
 IDenFi=        2 ISolve=        0 FullAP=F BlkAPC=T NucTyp=        0
 TolInv= 1.00D-06 TolIt=  1.00D-10 IR12=0.
 FoFCou: FMM=F IPFlag=           0 FMFlag=           0 FMFlg1=           0
         NFxFlg=           0 DoJE=F BraDBF=T KetDBF=T FulRan=T
         wScrn=  0.000000 ICntrl=     600 IOpCl=  3 I1Cent=           6 NGrid=           0
         NMat0=    1 NMatS0=    113 NMatT0=    0 NMatD0=    1 NMtDS0=    0 NMtDT0=    0
 Petite list used in FoFCou.
 DBF EigKep=  3.39D-04 EigRej= -1.00D+00
 NDBF=    110  NBFD=   110
 NRank=   110 NBFDU=   110
 S*AI*S=  8.62641002590    
 ExpMin= 2.96D-02 ExpMax= 3.96D+06 ExpMxC= 4.50D+03 IAcc=3 IRadAn=         5 AccDes= 0.00D+00
 Harris functional with IExCor= 1009 and IRadAn=       5 diagonalized for initial guess.
 HarFok:  IExCor= 1009 AccDes= 0.00D+00 IRadAn=         5 IDoV= 1 UseB2=F ITyADJ=14
 ICtDFT=  3500011 ScaDFX=  1.000000  1.000000  1.000000  1.000000
 FoFCou: FMM=F IPFlag=           0 FMFlag=      100000 FMFlg1=           0
         NFxFlg=           0 DoJE=T BraDBF=F KetDBF=T FulRan=T
         wScrn=  0.000000 ICntrl=     500 IOpCl=  0 I1Cent=   200000004 NGrid=           0
         NMat0=    1 NMatS0=      1 NMatT0=    0 NMatD0=    1 NMtDS0=    0 NMtDT0=    0
 Petite list used in FoFCou.
 Requested convergence on RMS density matrix=1.00D-08 within 128 cycles.
 Requested convergence on MAX density matrix=1.00D-06.
 Requested convergence on             energy=1.00D-06.
 No special actions if energy rises.
 FoFCou: FMM=F IPFlag=           0 FMFlag=      100000 FMFlg1=           0
         NFxFlg=           0 DoJE=T BraDBF=T KetDBF=F FulRan=T
         wScrn=  0.000000 ICntrl=     500 IOpCl=  0 I1Cent=           5 NGrid=           0
         NMat0=    1 NMatS0=      1 NMatT0=    0 NMatD0=    1 NMtDS0=    0 NMtDT0=    0
 Symmetry not used in FoFCou.
 SCF Done:  E(RPBE-PBE) =  -1455.99019768     A.U. after   14 cycles
            NFock= 14  Conv=0.45D-08     -V/T= 2.0022

 **********************************************************************

            Population analysis using the SCF density.

 **********************************************************************

 Orbital symmetries:
       Occupied  (A) (A) (A) (A) (A) (A) (A) (A) (A) (A) (A) (A)
                 (A) (A) (A) (A) (A) (A) (A) (A) (A) (A) (A) (A)
                 (A) (A) (A) (A) (A) (A) (A)
       Virtual   (A) (A) (A) (A) (A) (A) (A) (A) (A) (A) (A) (A)
                 (A) (A) (A) (A) (A) (A) (A) (A) (A) (A) (A) (A)
                 (A) (A) (A) (A) (A) (A) (A) (A) (A) (A) (A) (A)
                 (A) (A) (A) (A) (A) (A) (A) (A) (A) (A) (A) (A)
                 (A) (A) (A) (A) (A) (A) (A) (A) (A) (A) (A) (A)
                 (A) (A) (A) (A) (A) (A) (A) (A) (A) (A) (A) (A)
                 (A) (A) (A) (A) (A) (A) (A) (A) (A) (A) (A) (A)
                 (A) (A) (A) (A) (A) (A) (A) (A) (A) (A) (A) (A)
                 (A) (A) (A) (A) (A) (A) (A) (A) (A) (A) (A) (A)
                 (A) (A) (A) (A) (A) (A) (A) (A) (A) (A) (A) (A)
                 (A) (A) (A) (A) (A) (A) (A) (A) (A) (A) (A) (A)
                 (A) (A) (A) (A) (A) (A) (A) (A) (A) (A) (A) (A)
                 (A) (A) (A) (A) (A) (A) (A) (A) (A) (A) (A) (A)
                 (A) (A) (A) (A) (A) (A) (A) (A) (A) (A) (A) (A)
                 (A) (A) (A) (A) (A) (A) (A) (A) (A) (A) (A) (A)
                 (A) (A) (A) (A) (A) (A) (A) (A) (A) (A) (A) (A)
                 (A) (A) (A) (A) (A) (A) (A) (A) (A) (A) (A) (A)
                 (A) (A) (A) (A) (A) (A) (A) (A) (A) (A) (A) (A)
                 (A) (A) (A) (A) (A) (A) (A) (A) (A) (A) (A) (A)
                 (A) (A) (A) (A) (A) (A) (A) (A) (A) (A) (A) (A)
                 (A) (A) (A) (A) (A) (A) (A) (A) (A) (A) (A) (A)
                 (A) (A) (A) (A) (A) (A) (A) (A) (A) (A) (A) (A)
                 (A) (A) (A) (A) (A)
 The electronic state is 1-A.
 Alpha  occ. eigenvalues -- -234.78211 -27.75504 -23.91478 -23.91412 -23.91412
 Alpha  occ. eigenvalues --  -19.40808 -19.40807 -19.40806 -19.40806  -3.72959
 Alpha  occ. eigenvalues --   -2.61063  -2.60971  -2.60971  -1.56338  -1.55736
 Alpha  occ. eigenvalues --   -1.55734  -1.55733  -1.11094  -1.10877  -1.10269
 Alpha  occ. eigenvalues --   -1.10267  -1.05779  -1.04474  -1.04464  -1.04464
 Alpha  occ. eigenvalues --   -0.94869  -0.92576  -0.91897  -0.91896  -0.83953
 Alpha  occ. eigenvalues --   -0.83430
 Alpha virt. eigenvalues --   -0.74602  -0.74601  -0.74596  -0.57067  -0.50921
 Alpha virt. eigenvalues --   -0.50920  -0.50664  -0.44417  -0.43259  -0.43259
 Alpha virt. eigenvalues --   -0.42879  -0.39873  -0.38845  -0.38845  -0.38167
 Alpha virt. eigenvalues --   -0.32844  -0.31970  -0.30829  -0.30257  -0.30255
 Alpha virt. eigenvalues --   -0.27754  -0.26303  -0.25814  -0.25811  -0.20377
 Alpha virt. eigenvalues --   -0.13495  -0.13492  -0.11673  -0.08518  -0.07100
 Alpha virt. eigenvalues --   -0.06891  -0.06889  -0.05298   0.01314   0.02547
 Alpha virt. eigenvalues --    0.02550   0.02818   0.05240   0.05817   0.05970
 Alpha virt. eigenvalues --    0.05972   0.06217   0.09288   0.09293   0.09345
 Alpha virt. eigenvalues --    0.14085   0.14085   0.16787   0.18220   0.18223
 Alpha virt. eigenvalues --    0.23319   0.24922   0.27049   0.30885   0.37383
 Alpha virt. eigenvalues --    0.37385   0.43125   0.43537   0.43538   0.43628
 Alpha virt. eigenvalues --    0.49412   0.52072   0.52074   0.53644   0.58963
 Alpha virt. eigenvalues --    0.63234   0.63566   0.63573   0.66212   0.67706
 Alpha virt. eigenvalues --    0.67985   0.70662   0.70667   0.73700   0.73701
 Alpha virt. eigenvalues --    0.74794   0.76885   0.86262   0.88883   0.88890
 Alpha virt. eigenvalues --    0.90119   0.95661   0.95673   1.00615   1.04903
 Alpha virt. eigenvalues --    1.07332   1.09987   1.11983   1.11998   1.17588
 Alpha virt. eigenvalues --    1.17598   1.21209   1.26942   1.35320   1.38162
 Alpha virt. eigenvalues --    1.38933   1.38939   1.41393   1.44304   1.44307
 Alpha virt. eigenvalues --    1.48161   1.54666   1.58545   1.58549   1.66488
 Alpha virt. eigenvalues --    1.72513   1.72518   1.74024   1.91057   1.97940
 Alpha virt. eigenvalues --    1.98510   1.98523   2.12662   2.12963   2.12972
 Alpha virt. eigenvalues --    2.16323   2.24852   2.29165   2.29184   2.30023
 Alpha virt. eigenvalues --    2.42742   2.43830   2.44807   2.44816   2.58913
 Alpha virt. eigenvalues --    2.58921   2.58923   2.59705   2.62145   2.62231
 Alpha virt. eigenvalues --    2.62235   2.64217   2.67503   2.68268   2.69289
 Alpha virt. eigenvalues --    2.69291   2.75334   2.75344   2.77614   2.81891
 Alpha virt. eigenvalues --    2.83866   2.83869   2.85801   2.86381   2.97256
 Alpha virt. eigenvalues --    2.98324   2.98328   3.00889   3.11476   3.11477
 Alpha virt. eigenvalues --    3.12007   3.14691   3.17156   3.18256   3.18261
 Alpha virt. eigenvalues --    3.18585   3.20732   3.21432   3.21445   3.21835
 Alpha virt. eigenvalues --    3.28268   3.29986   3.31108   3.31118   3.35806
 Alpha virt. eigenvalues --    3.36340   3.36343   3.38206   3.47791   3.51546
 Alpha virt. eigenvalues --    3.51554   3.52032   3.53550   3.56855   3.61940
 Alpha virt. eigenvalues --    3.61946   3.62445   3.62719   3.62720   3.63504
 Alpha virt. eigenvalues --    3.65674   3.65870   3.73488   3.73494   3.78136
 Alpha virt. eigenvalues --    3.88327   3.90338   3.92118   3.92121   4.03882
 Alpha virt. eigenvalues --    4.06543   4.14948   4.14956   4.25615   4.35679
 Alpha virt. eigenvalues --    4.35687   4.35706   4.40809   4.45275   4.45282
 Alpha virt. eigenvalues --    4.46342   4.79755   4.79769   4.80972   4.81497
 Alpha virt. eigenvalues --    5.21422   5.23766   5.23775   5.24730   5.55657
 Alpha virt. eigenvalues --    5.58138   5.58145   5.59584   5.59590   5.59650
 Alpha virt. eigenvalues --    5.60638   5.63998   5.73823   5.73825   5.74255
 Alpha virt. eigenvalues --    5.78093   5.79546   5.79552   5.79707   5.80979
 Alpha virt. eigenvalues --    5.90954   5.93510   5.93511   5.93791   5.95531
 Alpha virt. eigenvalues --    5.95749   5.95754   5.96661   6.03229   6.09892
 Alpha virt. eigenvalues --    6.11060   6.11064   6.14887   6.19003   6.19003
 Alpha virt. eigenvalues --    6.20898   6.21477   6.25553   6.25556   6.25880
 Alpha virt. eigenvalues --    6.29102   6.36463   6.43323   6.43325   6.45359
 Alpha virt. eigenvalues --    6.56745   6.63296   6.63300   6.67410   6.74549
 Alpha virt. eigenvalues --    6.76373   6.76381   7.00641   7.06039   7.06046
 Alpha virt. eigenvalues --    7.07004   7.12108   7.14217   7.14230   7.43826
 Alpha virt. eigenvalues --   11.71371  11.71382  11.80491  11.81116
     Molecular Orbital Coefficients:
                           1         2         3         4         5
                           O         O         O         O         O
     Eigenvalues --  -234.78211 -27.75504 -23.91478 -23.91412 -23.91412
   1 1   Mn 1S          1.00065  -0.30249  -0.00000  -0.00000   0.00000
   2        2S         -0.00218   1.04660   0.00000   0.00000  -0.00000
   3        3S         -0.00030  -0.00264   0.00000  -0.00000   0.00000
   4        4S         -0.00159  -0.00571  -0.00000   0.00000   0.00000
   5        5S         -0.00142  -0.00466  -0.00000   0.00000   0.00000
   6        6S          0.00026   0.00025  -0.00000   0.00000   0.00000
   7        7S         -0.00025  -0.00078  -0.00000  -0.00000   0.00000
   8        8PX         0.00000   0.00000  -0.00716   0.66108   0.75141
   9        8PY        -0.00000  -0.00000   0.00818   0.75144  -0.66103
  10        8PZ        -0.00000  -0.00000   1.00078  -0.00141   0.01078
  11        9PX        -0.00000  -0.00000  -0.00004   0.00370   0.00414
  12        9PY        -0.00000  -0.00000   0.00005   0.00414  -0.00370
  13        9PZ         0.00000   0.00000   0.00551  -0.00001   0.00006
  14       10PX        -0.00000   0.00000  -0.00005   0.00452   0.00509
  15       10PY        -0.00000  -0.00000   0.00006   0.00509  -0.00452
  16       10PZ         0.00000   0.00000   0.00658  -0.00001   0.00007
  17       11PX         0.00000   0.00000  -0.00001   0.00083   0.00113
  18       11PY        -0.00000  -0.00000   0.00001   0.00113  -0.00083
  19       11PZ         0.00000   0.00000   0.00111  -0.00000   0.00001
  20       12PX        -0.00000  -0.00000  -0.00003   0.00257   0.00290
  21       12PY        -0.00000   0.00000   0.00003   0.00290  -0.00257
  22       12PZ         0.00000   0.00000   0.00386  -0.00001   0.00004
  23       13PX         0.00000   0.00000   0.00000  -0.00024  -0.00019
  24       13PY         0.00000   0.00000  -0.00000  -0.00019   0.00024
  25       13PZ        -0.00000  -0.00000  -0.00023  -0.00000  -0.00000
  26       14D 0        0.00000  -0.00002   0.00000  -0.00000   0.00000
  27       14D+1       -0.00000   0.00000  -0.00000  -0.00042   0.00027
  28       14D-1        0.00000  -0.00000   0.00000  -0.00027  -0.00042
  29       14D+2        0.00000   0.00000  -0.00018   0.00000  -0.00000
  30       14D-2       -0.00000  -0.00000  -0.00046   0.00000  -0.00000
  31       15D 0        0.00000   0.00002   0.00000   0.00001  -0.00001
  32       15D+1        0.00000  -0.00000   0.00001   0.00119  -0.00081
  33       15D-1       -0.00000   0.00000  -0.00000   0.00081   0.00119
  34       15D+2       -0.00000  -0.00000   0.00046  -0.00001   0.00000
  35       15D-2        0.00000   0.00000   0.00133  -0.00000   0.00000
  36       16D 0       -0.00000   0.00002  -0.00000   0.00000  -0.00000
  37       16D+1       -0.00000  -0.00000   0.00000   0.00019  -0.00010
  38       16D-1       -0.00000   0.00000  -0.00000   0.00010   0.00019
  39       16D+2       -0.00000  -0.00000   0.00009  -0.00000   0.00000
  40       16D-2        0.00000   0.00000   0.00019  -0.00000   0.00000
  41       17D 0        0.00000   0.00000   0.00000  -0.00000  -0.00000
  42       17D+1       -0.00000  -0.00000   0.00000  -0.00020  -0.00009
  43       17D-1       -0.00000  -0.00000   0.00000   0.00009  -0.00020
  44       17D+2        0.00000   0.00000   0.00012   0.00000   0.00000
  45       17D-2       -0.00000  -0.00000  -0.00021  -0.00000  -0.00000
  46       18F 0       -0.00000  -0.00000   0.00027  -0.00000   0.00000
  47       18F+1        0.00000   0.00000  -0.00000  -0.00011  -0.00012
  48       18F-1       -0.00000   0.00000   0.00000  -0.00012   0.00011
  49       18F+2       -0.00000   0.00002   0.00000   0.00000   0.00000
  50       18F-2       -0.00001   0.00001   0.00000  -0.00000  -0.00000
  51       18F+3        0.00000  -0.00000  -0.00000  -0.00008   0.00020
  52       18F-3        0.00000  -0.00000   0.00000  -0.00020  -0.00008
  53       19F 0        0.00000   0.00000   0.00007  -0.00000   0.00000
  54       19F+1       -0.00000  -0.00000  -0.00000  -0.00002  -0.00003
  55       19F-1        0.00000   0.00000  -0.00000  -0.00003   0.00002
  56       19F+2        0.00001   0.00002  -0.00000   0.00000   0.00000
  57       19F-2        0.00003   0.00014   0.00000   0.00000   0.00000
  58       19F+3       -0.00000  -0.00000  -0.00000   0.00010   0.00006
  59       19F-3       -0.00000  -0.00000  -0.00000  -0.00006   0.00010
  60       20G 0        0.00000   0.00009  -0.00000  -0.00000   0.00000
  61       20G+1       -0.00000  -0.00000  -0.00000  -0.00001   0.00001
  62       20G-1        0.00000   0.00000   0.00000  -0.00001  -0.00001
  63       20G+2       -0.00000   0.00000   0.00001  -0.00000   0.00000
  64       20G-2        0.00000  -0.00000   0.00003   0.00000   0.00000
  65       20G+3        0.00000   0.00000  -0.00000  -0.00001   0.00002
  66       20G-3        0.00000  -0.00000  -0.00000   0.00002   0.00001
  67       20G+4        0.00000   0.00004   0.00000   0.00000  -0.00000
  68       20G-4       -0.00000  -0.00006   0.00000  -0.00000  -0.00000
  69 2   O  1S         -0.00000  -0.00002  -0.00002   0.00000   0.00003
  70        2S         -0.00001  -0.00009  -0.00012   0.00001   0.00017
  71        3S         -0.00001  -0.00001  -0.00003   0.00001   0.00004
  72        4S          0.00007   0.00030   0.00081  -0.00029  -0.00119
  73        5PX        -0.00000  -0.00000  -0.00002  -0.00002  -0.00000
  74        5PY         0.00000   0.00001   0.00001  -0.00000  -0.00001
  75        5PZ         0.00000   0.00000  -0.00001  -0.00001  -0.00003
  76        6PX         0.00001   0.00001   0.00017   0.00014   0.00005
  77        6PY        -0.00001  -0.00001  -0.00008  -0.00002   0.00009
  78        6PZ        -0.00000  -0.00001   0.00005   0.00006   0.00024
  79        7PX         0.00008   0.00036   0.00131   0.00061  -0.00056
  80        7PY        -0.00010  -0.00046  -0.00094  -0.00013   0.00133
  81        7PZ        -0.00009  -0.00043  -0.00035   0.00007   0.00171
  82        8D 0       -0.00000  -0.00000  -0.00000  -0.00001   0.00001
  83        8D+1       -0.00001  -0.00001  -0.00003   0.00001   0.00003
  84        8D-1        0.00000  -0.00000   0.00001   0.00002  -0.00000
  85        8D+2       -0.00000  -0.00001  -0.00002  -0.00001   0.00002
  86        8D-2       -0.00000   0.00000   0.00000  -0.00001   0.00002
  87        9D 0        0.00001   0.00002   0.00007   0.00007  -0.00001
  88        9D+1        0.00002   0.00004   0.00013  -0.00007  -0.00014
  89        9D-1       -0.00000   0.00001   0.00003  -0.00003  -0.00001
  90        9D+2        0.00001   0.00004   0.00005   0.00002  -0.00017
  91        9D-2        0.00001  -0.00001  -0.00002   0.00007   0.00005
  92       10F 0        0.00000   0.00001   0.00001  -0.00001  -0.00001
  93       10F+1        0.00000   0.00000   0.00000   0.00001   0.00000
  94       10F-1        0.00000  -0.00000   0.00002   0.00001   0.00001
  95       10F+2        0.00000   0.00000   0.00001   0.00000   0.00001
  96       10F-2        0.00000   0.00002   0.00002  -0.00000  -0.00002
  97       10F+3       -0.00000  -0.00001  -0.00001   0.00001   0.00002
  98       10F-3        0.00000   0.00000  -0.00000  -0.00001  -0.00002
  99 3   H  1S         -0.00000  -0.00001  -0.00007  -0.00002  -0.00001
 100        2S          0.00002   0.00009   0.00072   0.00062   0.00042
 101        3S          0.00001   0.00005   0.00017   0.00008  -0.00006
 102        4PX        -0.00000  -0.00001  -0.00001   0.00003   0.00004
 103        4PY         0.00000  -0.00000  -0.00000  -0.00000  -0.00001
 104        4PZ        -0.00000  -0.00002  -0.00002   0.00000   0.00006
 105        5PX         0.00000   0.00001   0.00018   0.00019   0.00025
 106        5PY         0.00002   0.00008   0.00003  -0.00013  -0.00042
 107        5PZ         0.00004   0.00015   0.00031   0.00010  -0.00044
 108        6D 0        0.00001   0.00001   0.00002  -0.00002  -0.00007
 109        6D+1        0.00001   0.00002   0.00006   0.00003  -0.00007
 110        6D-1       -0.00000  -0.00001  -0.00003  -0.00000   0.00002
 111        6D+2        0.00000   0.00001   0.00002   0.00001  -0.00001
 112        6D-2        0.00001   0.00002   0.00001  -0.00002  -0.00010
 113 4   O  1S         -0.00000  -0.00002   0.00002  -0.00003   0.00000
 114        2S         -0.00001  -0.00009   0.00012  -0.00017   0.00001
 115        3S         -0.00001  -0.00001   0.00003  -0.00004   0.00001
 116        4S          0.00007   0.00030  -0.00079   0.00120  -0.00030
 117        5PX         0.00000   0.00001  -0.00001   0.00001  -0.00000
 118        5PY         0.00000   0.00000  -0.00002  -0.00000   0.00002
 119        5PZ        -0.00000  -0.00001  -0.00001  -0.00003   0.00001
 120        6PX        -0.00001  -0.00001   0.00008  -0.00009  -0.00002
 121        6PY        -0.00001  -0.00001   0.00017   0.00005  -0.00014
 122        6PZ         0.00000   0.00001   0.00005   0.00023  -0.00006
 123        7PX        -0.00010  -0.00046   0.00093  -0.00135  -0.00013
 124        7PY        -0.00008  -0.00036   0.00130  -0.00056  -0.00060
 125        7PZ         0.00009   0.00043  -0.00034   0.00171  -0.00007
 126        8D 0       -0.00000  -0.00000  -0.00000  -0.00001  -0.00001
 127        8D+1       -0.00000   0.00000   0.00001  -0.00000  -0.00002
 128        8D-1       -0.00001  -0.00001   0.00003  -0.00003   0.00001
 129        8D+2        0.00000   0.00001  -0.00002   0.00002   0.00001
 130        8D-2        0.00000  -0.00000   0.00001   0.00002   0.00001
 131        9D 0        0.00001   0.00002  -0.00007   0.00001   0.00007
 132        9D+1        0.00000  -0.00001   0.00004  -0.00001   0.00003
 133        9D-1        0.00002   0.00004  -0.00012   0.00014  -0.00007
 134        9D+2       -0.00001  -0.00004   0.00005  -0.00017  -0.00002
 135        9D-2       -0.00001   0.00001  -0.00002   0.00005  -0.00007
 136       10F 0       -0.00000  -0.00001   0.00001  -0.00001   0.00001
 137       10F+1        0.00000  -0.00000  -0.00002  -0.00001   0.00001
 138       10F-1       -0.00000  -0.00000   0.00000   0.00000  -0.00001
 139       10F+2        0.00000   0.00000  -0.00001  -0.00000   0.00000
 140       10F-2        0.00000   0.00002  -0.00002   0.00002  -0.00000
 141       10F+3       -0.00000  -0.00000  -0.00000  -0.00002   0.00001
 142       10F-3       -0.00000  -0.00001   0.00001  -0.00002   0.00001
 143 5   H  1S         -0.00000  -0.00001  -0.00002  -0.00007   0.00004
 144        2S          0.00002   0.00014   0.00035   0.00085  -0.00021
 145        3S          0.00001   0.00007  -0.00003   0.00028  -0.00009
 146        4PX         0.00000  -0.00000   0.00001   0.00001   0.00000
 147        4PY        -0.00000  -0.00002   0.00004  -0.00004  -0.00003
 148        4PZ        -0.00000  -0.00001   0.00003   0.00000   0.00001
 149        5PX         0.00002   0.00006  -0.00034   0.00005   0.00010
 150        5PY         0.00004   0.00015  -0.00030   0.00046   0.00012
 151        5PZ        -0.00000   0.00001   0.00019   0.00015  -0.00013
 152        6D 0       -0.00000  -0.00000   0.00002   0.00001  -0.00001
 153        6D+1        0.00001   0.00002  -0.00008   0.00003   0.00003
 154        6D-1        0.00001   0.00002  -0.00004   0.00009   0.00001
 155        6D+2       -0.00001  -0.00002   0.00006  -0.00004  -0.00001
 156        6D-2       -0.00000  -0.00001   0.00002  -0.00004   0.00000
 157 6   O  1S         -0.00000  -0.00002  -0.00002  -0.00000  -0.00003
 158        2S         -0.00001  -0.00009  -0.00012  -0.00001  -0.00017
 159        3S         -0.00001  -0.00001  -0.00003  -0.00001  -0.00004
 160        4S          0.00007   0.00030   0.00079   0.00029   0.00120
 161        5PX         0.00000   0.00000   0.00002  -0.00002  -0.00000
 162        5PY        -0.00000  -0.00001  -0.00001  -0.00000  -0.00001
 163        5PZ         0.00000   0.00001  -0.00001   0.00001   0.00003
 164        6PX        -0.00001  -0.00001  -0.00017   0.00014   0.00005
 165        6PY         0.00001   0.00001   0.00008  -0.00002   0.00009
 166        6PZ        -0.00000  -0.00001   0.00005  -0.00006  -0.00023
 167        7PX        -0.00008  -0.00036  -0.00129   0.00062  -0.00056
 168        7PY         0.00010   0.00046   0.00092  -0.00014   0.00134
 169        7PZ        -0.00009  -0.00044  -0.00034  -0.00007  -0.00172
 170        8D 0       -0.00000  -0.00000   0.00000   0.00001  -0.00001
 171        8D+1        0.00001   0.00001   0.00003   0.00001   0.00003
 172        8D-1       -0.00000   0.00000  -0.00001   0.00002  -0.00000
 173        8D+2       -0.00000  -0.00001  -0.00002   0.00001  -0.00002
 174        8D-2       -0.00000   0.00000   0.00001   0.00001  -0.00002
 175        9D 0        0.00001   0.00002   0.00006  -0.00007   0.00001
 176        9D+1       -0.00002  -0.00004  -0.00012  -0.00007  -0.00014
 177        9D-1        0.00000  -0.00001  -0.00003  -0.00003  -0.00001
 178        9D+2        0.00001   0.00004   0.00005  -0.00002   0.00017
 179        9D-2        0.00001  -0.00001  -0.00002  -0.00007  -0.00005
 180       10F 0        0.00000   0.00001   0.00001   0.00001   0.00001
 181       10F+1       -0.00000  -0.00000  -0.00000   0.00001   0.00000
 182       10F-1       -0.00000   0.00000  -0.00002   0.00001   0.00001
 183       10F+2        0.00000   0.00000   0.00001  -0.00000  -0.00000
 184       10F-2        0.00000   0.00002   0.00002   0.00000   0.00002
 185       10F+3        0.00000   0.00001   0.00001   0.00001   0.00002
 186       10F-3       -0.00000  -0.00000   0.00000  -0.00001  -0.00002
 187 7   H  1S         -0.00000  -0.00001   0.00002  -0.00004  -0.00007
 188        2S          0.00002   0.00014  -0.00035   0.00022   0.00085
 189        3S          0.00001   0.00007   0.00003   0.00009   0.00028
 190        4PX        -0.00000  -0.00002  -0.00004   0.00003  -0.00004
 191        4PY        -0.00000   0.00000   0.00001   0.00000  -0.00001
 192        4PZ         0.00000   0.00001   0.00003   0.00001  -0.00000
 193        5PX         0.00004   0.00015   0.00030  -0.00012   0.00046
 194        5PY        -0.00002  -0.00006  -0.00034   0.00010  -0.00005
 195        5PZ         0.00000  -0.00001   0.00020  -0.00013  -0.00015
 196        6D 0       -0.00000  -0.00000  -0.00002   0.00001   0.00001
 197        6D+1       -0.00001  -0.00002  -0.00004   0.00001  -0.00009
 198        6D-1        0.00001   0.00002   0.00008  -0.00003   0.00003
 199        6D+2        0.00001   0.00002   0.00006  -0.00001   0.00004
 200        6D-2        0.00000   0.00001   0.00002   0.00000   0.00004
 201 8   O  1S         -0.00000  -0.00002   0.00002   0.00003   0.00000
 202        2S         -0.00001  -0.00009   0.00012   0.00017  -0.00000
 203        3S         -0.00001  -0.00001   0.00003   0.00004  -0.00001
 204        4S          0.00007   0.00030  -0.00080  -0.00119   0.00029
 205        5PX        -0.00000  -0.00001   0.00001   0.00001  -0.00000
 206        5PY        -0.00000  -0.00000   0.00002  -0.00000   0.00002
 207        5PZ        -0.00000  -0.00001  -0.00001   0.00003  -0.00001
 208        6PX         0.00001   0.00001  -0.00008  -0.00008  -0.00002
 209        6PY         0.00001   0.00001  -0.00017   0.00005  -0.00015
 210        6PZ         0.00000   0.00001   0.00005  -0.00024   0.00006
 211        7PX         0.00010   0.00046  -0.00093  -0.00133  -0.00014
 212        7PY         0.00008   0.00036  -0.00130  -0.00056  -0.00062
 213        7PZ         0.00009   0.00044  -0.00035  -0.00172   0.00007
 214        8D 0       -0.00000  -0.00000  -0.00000   0.00001   0.00001
 215        8D+1        0.00000  -0.00000  -0.00001  -0.00000  -0.00002
 216        8D-1        0.00001   0.00001  -0.00003  -0.00003   0.00001
 217        8D+2        0.00000   0.00001  -0.00002  -0.00002  -0.00001
 218        8D-2        0.00000  -0.00000   0.00001  -0.00002  -0.00001
 219        9D 0        0.00001   0.00002  -0.00007  -0.00001  -0.00007
 220        9D+1       -0.00000   0.00001  -0.00003  -0.00001   0.00003
 221        9D-1       -0.00002  -0.00004   0.00013   0.00014  -0.00007
 222        9D+2       -0.00001  -0.00004   0.00005   0.00017   0.00002
 223        9D-2       -0.00001   0.00001  -0.00002  -0.00005   0.00007
 224       10F 0       -0.00000  -0.00001   0.00001   0.00001  -0.00001
 225       10F+1       -0.00000   0.00000   0.00002  -0.00001   0.00001
 226       10F-1        0.00000   0.00000  -0.00000   0.00000  -0.00001
 227       10F+2        0.00000   0.00000  -0.00001   0.00000  -0.00000
 228       10F-2        0.00000   0.00002  -0.00002  -0.00002   0.00000
 229       10F+3        0.00000   0.00000   0.00000  -0.00002   0.00001
 230       10F-3        0.00000   0.00001  -0.00001  -0.00002   0.00001
 231 9   H  1S         -0.00000  -0.00001  -0.00002   0.00007  -0.00004
 232        2S          0.00002   0.00014   0.00035  -0.00085   0.00022
 233        3S          0.00001   0.00007  -0.00003  -0.00028   0.00009
 234        4PX        -0.00000   0.00000  -0.00001   0.00001   0.00000
 235        4PY         0.00000   0.00002  -0.00004  -0.00004  -0.00003
 236        4PZ        -0.00000  -0.00001   0.00003  -0.00000  -0.00001
 237        5PX        -0.00002  -0.00006   0.00034   0.00005   0.00010
 238        5PY        -0.00004  -0.00015   0.00030   0.00045   0.00012
 239        5PZ        -0.00000   0.00001   0.00019  -0.00016   0.00013
 240        6D 0       -0.00000  -0.00000   0.00002  -0.00001   0.00001
 241        6D+1       -0.00001  -0.00002   0.00008   0.00003   0.00003
 242        6D-1       -0.00001  -0.00002   0.00005   0.00009   0.00001
 243        6D+2       -0.00001  -0.00002   0.00006   0.00004   0.00001
 244        6D-2       -0.00000  -0.00001   0.00003   0.00004  -0.00000
 245 10  H  1S         -0.00000  -0.00001   0.00007   0.00001  -0.00002
 246        2S          0.00002   0.00009  -0.00072  -0.00041   0.00062
 247        3S          0.00001   0.00005  -0.00017   0.00007   0.00008
 248        4PX         0.00000  -0.00000   0.00000   0.00001  -0.00000
 249        4PY         0.00000   0.00001  -0.00001   0.00004  -0.00003
 250        4PZ         0.00000   0.00002  -0.00002   0.00006  -0.00000
 251        5PX         0.00002   0.00008  -0.00003   0.00042  -0.00013
 252        5PY        -0.00000  -0.00001   0.00018   0.00025  -0.00019
 253        5PZ        -0.00004  -0.00015   0.00030  -0.00044  -0.00010
 254        6D 0        0.00001   0.00001  -0.00002   0.00007  -0.00002
 255        6D+1        0.00000   0.00001  -0.00003   0.00003   0.00000
 256        6D-1        0.00001   0.00002  -0.00006   0.00007   0.00002
 257        6D+2       -0.00000  -0.00001   0.00002  -0.00001  -0.00001
 258        6D-2       -0.00001  -0.00002   0.00001  -0.00010   0.00002
 259 11  H  1S         -0.00000  -0.00001  -0.00007   0.00002   0.00001
 260        2S          0.00002   0.00009   0.00072  -0.00062  -0.00041
 261        3S          0.00001   0.00005   0.00017  -0.00008   0.00007
 262        4PX         0.00000   0.00001   0.00001   0.00003   0.00004
 263        4PY        -0.00000   0.00000   0.00000  -0.00000  -0.00001
 264        4PZ        -0.00000  -0.00002  -0.00002  -0.00000  -0.00006
 265        5PX        -0.00000  -0.00001  -0.00018   0.00019   0.00024
 266        5PY        -0.00002  -0.00008  -0.00002  -0.00013  -0.00042
 267        5PZ         0.00004   0.00015   0.00030  -0.00010   0.00044
 268        6D 0        0.00001   0.00001   0.00002   0.00002   0.00007
 269        6D+1       -0.00001  -0.00002  -0.00006   0.00003  -0.00007
 270        6D-1        0.00000   0.00001   0.00003  -0.00000   0.00003
 271        6D+2        0.00000   0.00001   0.00002  -0.00001   0.00001
 272        6D-2        0.00001   0.00002   0.00001   0.00002   0.00010
 273 12  H  1S         -0.00000  -0.00001   0.00002   0.00004   0.00007
 274        2S          0.00002   0.00014  -0.00035  -0.00021  -0.00085
 275        3S          0.00001   0.00007   0.00003  -0.00009  -0.00028
 276        4PX         0.00000   0.00002   0.00004   0.00003  -0.00004
 277        4PY         0.00000  -0.00000  -0.00001   0.00000  -0.00001
 278        4PZ         0.00000   0.00001   0.00003  -0.00001   0.00000
 279        5PX        -0.00004  -0.00015  -0.00031  -0.00012   0.00045
 280        5PY         0.00002   0.00006   0.00034   0.00010  -0.00004
 281        5PZ         0.00000  -0.00001   0.00019   0.00013   0.00016
 282        6D 0       -0.00000  -0.00000  -0.00002  -0.00001  -0.00001
 283        6D+1        0.00001   0.00002   0.00005   0.00001  -0.00009
 284        6D-1       -0.00001  -0.00002  -0.00008  -0.00003   0.00003
 285        6D+2        0.00001   0.00002   0.00006   0.00001  -0.00004
 286        6D-2        0.00000   0.00001   0.00003  -0.00000  -0.00004
 287 13  H  1S         -0.00000  -0.00001   0.00007  -0.00001   0.00002
 288        2S          0.00002   0.00009  -0.00071   0.00042  -0.00063
 289        3S          0.00001   0.00005  -0.00017  -0.00006  -0.00008
 290        4PX        -0.00000   0.00000  -0.00000   0.00001  -0.00000
 291        4PY        -0.00000  -0.00001   0.00001   0.00004  -0.00003
 292        4PZ         0.00000   0.00002  -0.00002  -0.00006   0.00000
 293        5PX        -0.00002  -0.00008   0.00003   0.00041  -0.00013
 294        5PY         0.00000   0.00001  -0.00018   0.00025  -0.00019
 295        5PZ        -0.00004  -0.00015   0.00030   0.00044   0.00010
 296        6D 0        0.00001   0.00001  -0.00002  -0.00007   0.00002
 297        6D+1       -0.00000  -0.00001   0.00003   0.00003   0.00000
 298        6D-1       -0.00001  -0.00002   0.00006   0.00007   0.00003
 299        6D+2       -0.00000  -0.00001   0.00002   0.00001   0.00001
 300        6D-2       -0.00001  -0.00002   0.00001   0.00010  -0.00002
                           6         7         8         9        10
                           O         O         O         O         O
     Eigenvalues --   -19.40808 -19.40807 -19.40806 -19.40806  -3.72959
   1 1   Mn 1S          0.00000   0.00000   0.00000   0.00000   0.11099
   2        2S          0.00001   0.00001   0.00001   0.00001  -0.43385
   3        3S         -0.00006  -0.00008  -0.00007  -0.00008   0.56132
   4        4S          0.00159   0.00201   0.00188   0.00195  -0.00744
   5        5S          0.00104   0.00131   0.00123   0.00128  -0.00653
   6        6S          0.00019   0.00024   0.00022   0.00023   0.57761
   7        7S          0.00021   0.00027   0.00025   0.00026  -0.00225
   8        8PX        -0.00000  -0.00001   0.00000   0.00000  -0.00000
   9        8PY        -0.00001   0.00000   0.00000  -0.00000   0.00000
  10        8PZ         0.00000  -0.00000   0.00000  -0.00000   0.00000
  11        9PX        -0.00031  -0.00040   0.00033   0.00036   0.00000
  12        9PY        -0.00039   0.00030   0.00037  -0.00034  -0.00000
  13        9PZ         0.00040  -0.00032   0.00036  -0.00034  -0.00000
  14       10PX        -0.00065  -0.00057   0.00066   0.00048  -0.00000
  15       10PY        -0.00055   0.00063   0.00051  -0.00069  -0.00000
  16       10PZ         0.00059  -0.00048   0.00054  -0.00051   0.00000
  17       11PX         0.00008   0.00075  -0.00012  -0.00073   0.00000
  18       11PY         0.00075  -0.00005  -0.00073   0.00015  -0.00000
  19       11PZ        -0.00070   0.00056  -0.00064   0.00061   0.00000
  20       12PX        -0.00008  -0.00013   0.00009   0.00011  -0.00000
  21       12PY        -0.00012   0.00008   0.00012  -0.00009   0.00000
  22       12PZ         0.00012  -0.00010   0.00011  -0.00011   0.00000
  23       13PX         0.00001   0.00005  -0.00001  -0.00004   0.00000
  24       13PY         0.00004  -0.00001  -0.00004   0.00002   0.00000
  25       13PZ         0.00002  -0.00002   0.00002  -0.00002  -0.00000
  26       14D 0        0.00001   0.00001   0.00001   0.00001   0.00011
  27       14D+1        0.00014  -0.00003  -0.00013   0.00005  -0.00000
  28       14D-1        0.00004   0.00014  -0.00005  -0.00013   0.00000
  29       14D+2       -0.00000   0.00000  -0.00000   0.00000  -0.00000
  30       14D-2       -0.00013   0.00010  -0.00012   0.00011   0.00000
  31       15D 0       -0.00002  -0.00002  -0.00002  -0.00003   0.00001
  32       15D+1       -0.00066   0.00026   0.00064  -0.00034   0.00000
  33       15D-1       -0.00028  -0.00068   0.00032   0.00063  -0.00000
  34       15D+2        0.00008  -0.00006   0.00007  -0.00007   0.00000
  35       15D-2        0.00059  -0.00047   0.00054  -0.00052   0.00000
  36       16D 0       -0.00000  -0.00000  -0.00000  -0.00000   0.00015
  37       16D+1       -0.00002  -0.00000   0.00002   0.00000  -0.00000
  38       16D-1        0.00000  -0.00002  -0.00000   0.00002   0.00000
  39       16D+2       -0.00000   0.00000  -0.00000   0.00000  -0.00000
  40       16D-2        0.00002  -0.00001   0.00002  -0.00002   0.00000
  41       17D 0        0.00002   0.00003   0.00003   0.00003   0.00004
  42       17D+1       -0.00015  -0.00028   0.00017   0.00025  -0.00000
  43       17D-1        0.00027  -0.00015  -0.00026   0.00018   0.00000
  44       17D+2       -0.00012   0.00010  -0.00011   0.00011   0.00000
  45       17D-2        0.00015  -0.00012   0.00014  -0.00013   0.00000
  46       18F 0       -0.00004   0.00003  -0.00003   0.00003  -0.00000
  47       18F+1       -0.00002  -0.00002   0.00002   0.00002   0.00000
  48       18F-1       -0.00002   0.00002   0.00002  -0.00002   0.00000
  49       18F+2        0.00001   0.00001   0.00001   0.00001   0.00031
  50       18F-2        0.00004   0.00005   0.00005   0.00005   0.00052
  51       18F+3        0.00001   0.00004  -0.00001  -0.00003  -0.00000
  52       18F-3       -0.00004   0.00001   0.00003  -0.00002  -0.00000
  53       19F 0        0.00018  -0.00014   0.00016  -0.00016   0.00000
  54       19F+1        0.00008   0.00011  -0.00008  -0.00010  -0.00000
  55       19F-1        0.00011  -0.00008  -0.00010   0.00008  -0.00001
  56       19F+2       -0.00004  -0.00004  -0.00004  -0.00004  -0.00040
  57       19F-2       -0.00021  -0.00027  -0.00025  -0.00026  -0.00078
  58       19F+3       -0.00006  -0.00017   0.00007   0.00016   0.00000
  59       19F-3        0.00017  -0.00005  -0.00016   0.00007   0.00000
  60       20G 0       -0.00002  -0.00003  -0.00003  -0.00003   0.00356
  61       20G+1        0.00002  -0.00001  -0.00002   0.00001  -0.00004
  62       20G-1        0.00001   0.00002  -0.00001  -0.00002   0.00002
  63       20G+2        0.00001  -0.00001   0.00001  -0.00001   0.00000
  64       20G-2        0.00004  -0.00003   0.00004  -0.00004  -0.00000
  65       20G+3        0.00003  -0.00004  -0.00003   0.00004   0.00001
  66       20G-3       -0.00004  -0.00003   0.00004   0.00003  -0.00001
  67       20G+4       -0.00002  -0.00002  -0.00002  -0.00002   0.00161
  68       20G-4        0.00001   0.00001   0.00001   0.00001  -0.00252
  69 2   O  1S         -0.01077  -0.00721  -0.02753   0.97283  -0.00077
  70        2S          0.00010   0.00009   0.00017  -0.00742   0.00096
  71        3S         -0.00056  -0.00038  -0.00146   0.05105   0.00006
  72        4S         -0.00066  -0.00023   0.00090   0.00512   0.00305
  73        5PX        -0.00001   0.00001  -0.00001  -0.00017   0.00038
  74        5PY        -0.00000   0.00001  -0.00001   0.00048  -0.00045
  75        5PZ         0.00001   0.00000  -0.00001   0.00014  -0.00042
  76        6PX         0.00009  -0.00003   0.00013  -0.00083   0.00063
  77        6PY        -0.00006  -0.00009  -0.00001   0.00106  -0.00072
  78        6PZ        -0.00008  -0.00008   0.00011   0.00087  -0.00069
  79        7PX        -0.00007  -0.00013   0.00042  -0.00113   0.00215
  80        7PY        -0.00019   0.00009   0.00005   0.00178  -0.00273
  81        7PZ         0.00000  -0.00026   0.00038   0.00134  -0.00254
  82        8D 0       -0.00001   0.00001  -0.00001   0.00003  -0.00001
  83        8D+1       -0.00001  -0.00000  -0.00000   0.00010  -0.00007
  84        8D-1        0.00000  -0.00000  -0.00002   0.00015   0.00006
  85        8D+2       -0.00001  -0.00001   0.00001   0.00005  -0.00003
  86        8D-2        0.00000  -0.00000   0.00000  -0.00013  -0.00006
  87        9D 0        0.00001  -0.00009   0.00012   0.00014   0.00010
  88        9D+1       -0.00002  -0.00003  -0.00001   0.00078  -0.00034
  89        9D-1       -0.00004  -0.00003   0.00015  -0.00007   0.00075
  90        9D+2        0.00000   0.00004  -0.00010   0.00033   0.00005
  91        9D-2        0.00001  -0.00003   0.00003   0.00010  -0.00065
  92       10F 0       -0.00001  -0.00001  -0.00000   0.00012   0.00012
  93       10F+1       -0.00000  -0.00001   0.00000   0.00015   0.00006
  94       10F-1       -0.00001  -0.00001   0.00002   0.00012  -0.00006
  95       10F+2        0.00000  -0.00000   0.00001  -0.00009   0.00004
  96       10F-2       -0.00001  -0.00001  -0.00000   0.00015   0.00022
  97       10F+3        0.00001   0.00000   0.00001  -0.00006  -0.00012
  98       10F-3       -0.00001   0.00000  -0.00001   0.00014  -0.00004
  99 3   H  1S         -0.00002  -0.00000  -0.00001   0.00030   0.00002
 100        2S          0.00027  -0.00014   0.00034  -0.00325   0.00013
 101        3S          0.00004  -0.00004   0.00006  -0.00049   0.00042
 102        4PX         0.00001   0.00000   0.00004  -0.00036  -0.00004
 103        4PY        -0.00001   0.00001  -0.00001   0.00022  -0.00005
 104        4PZ         0.00002  -0.00001   0.00002  -0.00004  -0.00015
 105        5PX         0.00015  -0.00006   0.00009  -0.00158  -0.00020
 106        5PY        -0.00004   0.00001  -0.00011   0.00068   0.00052
 107        5PZ         0.00000  -0.00001  -0.00002  -0.00053   0.00071
 108        6D 0       -0.00002   0.00000  -0.00002   0.00052   0.00003
 109        6D+1        0.00002  -0.00001   0.00002  -0.00036   0.00003
 110        6D-1       -0.00000   0.00000  -0.00002   0.00024  -0.00005
 111        6D+2        0.00002   0.00000   0.00002  -0.00057  -0.00001
 112        6D-2       -0.00002  -0.00000  -0.00004   0.00075   0.00011
 113 4   O  1S          0.96622   0.11622   0.00954   0.01182  -0.00077
 114        2S         -0.00737  -0.00087  -0.00004  -0.00013   0.00096
 115        3S          0.05070   0.00610   0.00049   0.00060   0.00006
 116        4S          0.00513   0.00000  -0.00009   0.00111   0.00305
 117        5PX         0.00048   0.00006   0.00002   0.00001  -0.00045
 118        5PY         0.00016   0.00003  -0.00000   0.00001  -0.00038
 119        5PZ        -0.00014  -0.00003  -0.00001   0.00001   0.00042
 120        6PX         0.00107   0.00007  -0.00007   0.00003  -0.00072
 121        6PY         0.00084   0.00002   0.00005  -0.00010  -0.00063
 122        6PZ        -0.00087  -0.00003   0.00006  -0.00014   0.00069
 123        7PX         0.00179   0.00006   0.00013   0.00012  -0.00273
 124        7PY         0.00111   0.00023   0.00014  -0.00037  -0.00213
 125        7PZ        -0.00132  -0.00016   0.00024  -0.00043   0.00255
 126        8D 0        0.00002  -0.00000   0.00001  -0.00001  -0.00001
 127        8D+1       -0.00015  -0.00002  -0.00000   0.00001  -0.00006
 128        8D-1        0.00010   0.00001   0.00000   0.00000  -0.00007
 129        8D+2       -0.00005  -0.00000   0.00001  -0.00001   0.00003
 130        8D-2        0.00013   0.00001   0.00000   0.00000   0.00006
 131        9D 0        0.00013   0.00002  -0.00009   0.00013   0.00010
 132        9D+1        0.00006   0.00005   0.00003  -0.00014  -0.00076
 133        9D-1        0.00077   0.00008  -0.00001   0.00003  -0.00034
 134        9D+2       -0.00033  -0.00005  -0.00004   0.00009  -0.00004
 135        9D-2       -0.00010  -0.00002   0.00003  -0.00004   0.00065
 136       10F 0       -0.00011  -0.00001   0.00000   0.00000  -0.00012
 137       10F+1        0.00011   0.00001  -0.00000   0.00002  -0.00006
 138       10F-1       -0.00015  -0.00001   0.00001  -0.00001  -0.00006
 139       10F+2       -0.00009  -0.00001  -0.00000   0.00000   0.00004
 140       10F-2        0.00015   0.00001  -0.00000   0.00001   0.00022
 141       10F+3       -0.00014  -0.00001  -0.00001   0.00000   0.00004
 142       10F-3       -0.00006  -0.00000   0.00000   0.00000  -0.00012
 143 5   H  1S          0.00032   0.00002   0.00000   0.00002  -0.00002
 144        2S         -0.00344  -0.00009   0.00027  -0.00089   0.00035
 145        3S         -0.00044  -0.00016   0.00003  -0.00000   0.00048
 146        4PX         0.00023   0.00003  -0.00001   0.00002  -0.00004
 147        4PY        -0.00005  -0.00000   0.00002  -0.00002  -0.00016
 148        4PZ        -0.00035  -0.00003   0.00002  -0.00004  -0.00004
 149        5PX         0.00079   0.00005  -0.00009   0.00019   0.00046
 150        5PY        -0.00058  -0.00003   0.00002  -0.00012   0.00067
 151        5PZ        -0.00157  -0.00006   0.00009  -0.00034  -0.00019
 152        6D 0       -0.00067  -0.00006  -0.00000  -0.00004  -0.00003
 153        6D+1        0.00079   0.00008  -0.00002   0.00005   0.00011
 154        6D-1       -0.00040  -0.00003   0.00001  -0.00004   0.00001
 155        6D+2       -0.00019  -0.00002   0.00000  -0.00001  -0.00002
 156        6D-2        0.00029   0.00003  -0.00001   0.00002  -0.00004
 157 6   O  1S         -0.11652   0.96597   0.02445   0.00657  -0.00077
 158        2S          0.00084  -0.00738  -0.00017  -0.00002   0.00096
 159        3S         -0.00613   0.05068   0.00128   0.00034   0.00006
 160        4S          0.00044   0.00521  -0.00047  -0.00007   0.00305
 161        5PX        -0.00001   0.00017   0.00002  -0.00000  -0.00038
 162        5PY         0.00005  -0.00048  -0.00001  -0.00002   0.00045
 163        5PZ        -0.00003   0.00014   0.00002   0.00000  -0.00042
 164        6PX        -0.00021   0.00081  -0.00006   0.00005  -0.00062
 165        6PY         0.00010  -0.00106   0.00003   0.00007   0.00072
 166        6PZ         0.00003   0.00088  -0.00005  -0.00006  -0.00070
 167        7PX        -0.00053   0.00107   0.00012   0.00012  -0.00212
 168        7PY         0.00011  -0.00178   0.00011  -0.00013   0.00272
 169        7PZ         0.00026   0.00139   0.00004  -0.00022  -0.00257
 170        8D 0       -0.00001   0.00002  -0.00000   0.00001  -0.00001
 171        8D+1        0.00001  -0.00010   0.00000  -0.00000   0.00007
 172        8D-1        0.00003  -0.00015  -0.00001   0.00000  -0.00006
 173        8D+2        0.00001   0.00006  -0.00000  -0.00001  -0.00003
 174        8D-2        0.00002  -0.00013  -0.00000  -0.00000  -0.00006
 175        9D 0        0.00011   0.00014   0.00001  -0.00009   0.00011
 176        9D+1        0.00007  -0.00077  -0.00000   0.00002   0.00035
 177        9D-1       -0.00015   0.00005   0.00004   0.00002  -0.00076
 178        9D+2       -0.00013   0.00032   0.00002   0.00004   0.00005
 179        9D-2        0.00003   0.00010   0.00001  -0.00003  -0.00064
 180       10F 0       -0.00002   0.00011  -0.00000  -0.00000   0.00012
 181       10F+1        0.00001  -0.00015   0.00000   0.00001  -0.00006
 182       10F-1       -0.00001  -0.00011   0.00000   0.00000   0.00006
 183       10F+2        0.00001  -0.00008  -0.00000  -0.00000   0.00004
 184       10F-2       -0.00001   0.00014  -0.00001  -0.00000   0.00022
 185       10F+3       -0.00001   0.00006  -0.00000  -0.00000   0.00012
 186       10F-3        0.00002  -0.00014   0.00000  -0.00000   0.00004
 187 7   H  1S         -0.00002   0.00032  -0.00001   0.00000  -0.00002
 188        2S         -0.00045  -0.00352   0.00022   0.00025   0.00036
 189        3S          0.00006  -0.00045  -0.00012   0.00004   0.00048
 190        4PX        -0.00001  -0.00005   0.00000   0.00002  -0.00016
 191        4PY         0.00001  -0.00023  -0.00000   0.00001   0.00004
 192        4PZ        -0.00000   0.00035  -0.00000  -0.00002   0.00004
 193        5PX        -0.00004  -0.00060   0.00003   0.00002   0.00067
 194        5PY        -0.00009  -0.00080   0.00002   0.00009  -0.00045
 195        5PZ         0.00014   0.00160  -0.00008  -0.00008   0.00020
 196        6D 0        0.00004  -0.00068   0.00001   0.00000  -0.00003
 197        6D+1       -0.00001   0.00040  -0.00001  -0.00001  -0.00001
 198        6D-1       -0.00006   0.00079   0.00001  -0.00002   0.00011
 199        6D+2       -0.00002   0.00019   0.00000  -0.00000   0.00002
 200        6D-2        0.00001  -0.00029  -0.00000   0.00001   0.00004
 201 8   O  1S         -0.00684  -0.02563   0.97256   0.02726  -0.00077
 202        2S          0.00008   0.00015  -0.00742  -0.00019   0.00096
 203        3S         -0.00036  -0.00136   0.05103   0.00143   0.00006
 204        4S         -0.00025   0.00090   0.00514  -0.00046   0.00305
 205        5PX        -0.00001   0.00001  -0.00048  -0.00002   0.00045
 206        5PY         0.00001  -0.00001  -0.00017  -0.00002   0.00038
 207        5PZ        -0.00000   0.00001  -0.00014  -0.00002   0.00042
 208        6PX         0.00008   0.00002  -0.00106   0.00003   0.00072
 209        6PY        -0.00005   0.00013  -0.00083   0.00006   0.00063
 210        6PZ         0.00008  -0.00010  -0.00087   0.00005   0.00069
 211        7PX        -0.00010  -0.00007  -0.00178   0.00010   0.00271
 212        7PY        -0.00015   0.00040  -0.00112  -0.00013   0.00214
 213        7PZ         0.00029  -0.00036  -0.00135  -0.00003   0.00256
 214        8D 0        0.00001  -0.00001   0.00003  -0.00000  -0.00001
 215        8D+1       -0.00000  -0.00002   0.00015   0.00001   0.00006
 216        8D-1        0.00000   0.00000  -0.00010   0.00000   0.00007
 217        8D+2        0.00001  -0.00001  -0.00005   0.00000   0.00003
 218        8D-2        0.00000  -0.00000   0.00013   0.00000   0.00006
 219        9D 0       -0.00011   0.00011   0.00014   0.00001   0.00011
 220        9D+1       -0.00004   0.00014  -0.00007  -0.00004   0.00075
 221        9D-1        0.00003   0.00001  -0.00078  -0.00000   0.00035
 222        9D+2       -0.00004   0.00010  -0.00033  -0.00002  -0.00005
 223        9D-2        0.00003  -0.00003  -0.00010  -0.00001   0.00065
 224       10F 0        0.00000   0.00000  -0.00012   0.00000  -0.00012
 225       10F+1        0.00001  -0.00002  -0.00011   0.00000   0.00006
 226       10F-1       -0.00001   0.00000   0.00015  -0.00000   0.00006
 227       10F+2       -0.00000   0.00001  -0.00009  -0.00000   0.00004
 228       10F-2       -0.00001  -0.00000   0.00015  -0.00001   0.00022
 229       10F+3        0.00000  -0.00001   0.00014  -0.00000  -0.00004
 230       10F-3       -0.00000  -0.00001   0.00006  -0.00000   0.00012
 231 9   H  1S         -0.00000   0.00001   0.00033  -0.00001  -0.00002
 232        2S          0.00040  -0.00073  -0.00346   0.00022   0.00035
 233        3S          0.00005   0.00002  -0.00046  -0.00012   0.00048
 234        4PX         0.00001  -0.00001  -0.00023  -0.00000   0.00004
 235        4PY        -0.00002   0.00002   0.00005  -0.00000   0.00016
 236        4PZ         0.00003  -0.00003  -0.00035   0.00000  -0.00004
 237        5PX         0.00012  -0.00014  -0.00078   0.00002  -0.00045
 238        5PY        -0.00004   0.00009   0.00058  -0.00002  -0.00067
 239        5PZ         0.00014  -0.00027  -0.00159   0.00008  -0.00019
 240        6D 0        0.00001  -0.00002  -0.00069   0.00000  -0.00003
 241        6D+1        0.00003  -0.00001  -0.00079  -0.00001  -0.00011
 242        6D-1       -0.00002   0.00002   0.00040  -0.00000  -0.00001
 243        6D+2        0.00001  -0.00000  -0.00019  -0.00000  -0.00002
 244        6D-2       -0.00002   0.00001   0.00028   0.00000  -0.00004
 245 10  H  1S          0.00030   0.00002   0.00000   0.00000   0.00002
 246        2S         -0.00326  -0.00017  -0.00022   0.00021   0.00013
 247        3S         -0.00049  -0.00003  -0.00005   0.00004   0.00042
 248        4PX         0.00022   0.00002   0.00001  -0.00001  -0.00005
 249        4PY         0.00036   0.00004   0.00001  -0.00003   0.00004
 250        4PZ         0.00004  -0.00001   0.00001  -0.00002   0.00015
 251        5PX         0.00068   0.00005   0.00002  -0.00009   0.00053
 252        5PY         0.00159   0.00006   0.00010  -0.00002   0.00019
 253        5PZ         0.00052   0.00006   0.00002   0.00004  -0.00070
 254        6D 0        0.00052   0.00005   0.00001  -0.00000   0.00003
 255        6D+1       -0.00024  -0.00003  -0.00001   0.00001   0.00005
 256        6D-1       -0.00036  -0.00003  -0.00001   0.00001   0.00003
 257        6D+2        0.00057   0.00005   0.00001   0.00000   0.00001
 258        6D-2       -0.00075  -0.00008  -0.00001   0.00001  -0.00011
 259 11  H  1S         -0.00004   0.00030  -0.00001   0.00000   0.00002
 260        2S          0.00064  -0.00321   0.00014  -0.00020   0.00012
 261        3S          0.00010  -0.00048   0.00002  -0.00005   0.00042
 262        4PX        -0.00008   0.00035   0.00001   0.00000   0.00004
 263        4PY         0.00003  -0.00022  -0.00000  -0.00001   0.00005
 264        4PZ         0.00003  -0.00004   0.00002  -0.00001  -0.00015
 265        5PX        -0.00023   0.00157  -0.00009   0.00009   0.00019
 266        5PY         0.00018  -0.00067   0.00001  -0.00001  -0.00052
 267        5PZ         0.00002  -0.00051  -0.00002  -0.00002   0.00071
 268        6D 0       -0.00007   0.00052   0.00000   0.00001   0.00003
 269        6D+1       -0.00005   0.00035  -0.00000   0.00001  -0.00003
 270        6D-1        0.00004  -0.00024  -0.00000  -0.00001   0.00005
 271        6D+2        0.00007  -0.00057   0.00000  -0.00001  -0.00001
 272        6D-2       -0.00011   0.00075   0.00000   0.00001   0.00011
 273 12  H  1S         -0.00002  -0.00001   0.00001   0.00032  -0.00002
 274        2S          0.00033   0.00036  -0.00075  -0.00345   0.00035
 275        3S         -0.00011   0.00003   0.00002  -0.00046   0.00048
 276        4PX        -0.00000  -0.00002   0.00002   0.00005   0.00016
 277        4PY        -0.00000  -0.00001   0.00001   0.00023  -0.00004
 278        4PZ        -0.00002  -0.00002   0.00003   0.00035   0.00004
 279        5PX        -0.00005  -0.00003   0.00009   0.00058  -0.00067
 280        5PY        -0.00004  -0.00011   0.00015   0.00079   0.00046
 281        5PZ        -0.00014  -0.00013   0.00028   0.00158   0.00019
 282        6D 0        0.00003   0.00001  -0.00002  -0.00068  -0.00003
 283        6D+1        0.00002   0.00002  -0.00002  -0.00039   0.00001
 284        6D-1        0.00002   0.00003  -0.00002  -0.00079  -0.00011
 285        6D+2       -0.00000  -0.00001   0.00000   0.00020   0.00002
 286        6D-2        0.00001   0.00002  -0.00001  -0.00028   0.00004
 287 13  H  1S         -0.00000  -0.00001   0.00030  -0.00001   0.00002
 288        2S         -0.00019   0.00032  -0.00326   0.00012   0.00013
 289        3S         -0.00005   0.00005  -0.00049   0.00001   0.00042
 290        4PX        -0.00001   0.00001  -0.00022  -0.00000   0.00005
 291        4PY        -0.00000   0.00004  -0.00036  -0.00001  -0.00004
 292        4PZ         0.00001  -0.00002   0.00004  -0.00002   0.00015
 293        5PX        -0.00002   0.00011  -0.00068   0.00001  -0.00052
 294        5PY        -0.00008   0.00008  -0.00159   0.00008  -0.00020
 295        5PZ         0.00000   0.00003   0.00052   0.00002  -0.00071
 296        6D 0        0.00000  -0.00002   0.00053   0.00000   0.00003
 297        6D+1        0.00001  -0.00001   0.00024   0.00001  -0.00005
 298        6D-1        0.00001  -0.00002   0.00036  -0.00000  -0.00003
 299        6D+2        0.00000  -0.00002   0.00057  -0.00000   0.00001
 300        6D-2       -0.00000   0.00004  -0.00075  -0.00001  -0.00011
                          11        12        13        14        15
                           O         O         O         O         O
     Eigenvalues --    -2.61063  -2.60971  -2.60971  -1.56338  -1.55736
   1 1   Mn 1S         -0.00000   0.00000   0.00000  -0.00779   0.00001
   2        2S          0.00000  -0.00000  -0.00000   0.02759  -0.00003
   3        3S         -0.00000   0.00000   0.00000  -0.06423   0.00007
   4        4S         -0.00000   0.00000  -0.00000   0.06498  -0.00007
   5        5S         -0.00000  -0.00000  -0.00000   0.06301  -0.00006
   6        6S         -0.00000  -0.00000   0.00000  -0.02559   0.00003
   7        7S         -0.00000   0.00000   0.00000   0.01400  -0.00002
   8        8PX        -0.00201   0.17656   0.31068   0.00003   0.00491
   9        8PY         0.00285   0.31068  -0.17655   0.00001   0.00653
  10        8PZ         0.35736  -0.00148   0.00315  -0.00002  -0.02393
  11        9PX         0.00283  -0.24836  -0.43793  -0.00005  -0.00753
  12        9PY        -0.00401  -0.43793   0.24834  -0.00001  -0.00945
  13        9PZ        -0.50358   0.00209  -0.00444   0.00003   0.03517
  14       10PX        -0.00024   0.02296   0.03805  -0.00003  -0.00548
  15       10PY         0.00036   0.03805  -0.02296  -0.00001  -0.00662
  16       10PZ         0.04420  -0.00018   0.00039   0.00002   0.02588
  17       11PX        -0.00007   0.00668   0.01032  -0.00003  -0.00440
  18       11PY         0.00010   0.01032  -0.00668  -0.00001  -0.00654
  19       11PZ         0.01270  -0.00005   0.00011   0.00002   0.02686
  20       12PX        -0.00348   0.30640   0.53894   0.00006   0.00975
  21       12PY         0.00494   0.53895  -0.30637   0.00002   0.01312
  22       12PZ         0.61995  -0.00257   0.00546  -0.00004  -0.04807
  23       13PX         0.00000  -0.00005  -0.00057   0.00000  -0.00009
  24       13PY        -0.00000  -0.00057   0.00005   0.00000   0.00066
  25       13PZ        -0.00055   0.00000  -0.00000  -0.00000  -0.00186
  26       14D 0        0.00000   0.00001  -0.00001  -0.00011  -0.00003
  27       14D+1        0.00001   0.00159  -0.00045  -0.00001  -0.00616
  28       14D-1        0.00000   0.00045   0.00159  -0.00002  -0.00271
  29       14D+2        0.00036  -0.00001   0.00000   0.00000   0.00292
  30       14D-2        0.00161  -0.00001   0.00000   0.00002   0.02044
  31       15D 0       -0.00000  -0.00001   0.00001  -0.00081  -0.00002
  32       15D+1       -0.00001  -0.00130   0.00028  -0.00000  -0.00416
  33       15D-1        0.00000  -0.00028  -0.00130  -0.00002  -0.00220
  34       15D+2       -0.00020   0.00001  -0.00000   0.00000   0.00290
  35       15D-2       -0.00132   0.00001  -0.00000   0.00001   0.01402
  36       16D 0        0.00000  -0.00001   0.00000  -0.00038  -0.00003
  37       16D+1       -0.00001  -0.00108  -0.00010  -0.00001  -0.00633
  38       16D-1        0.00000   0.00010  -0.00108  -0.00002  -0.00291
  39       16D+2       -0.00063   0.00001  -0.00000   0.00000   0.00330
  40       16D-2       -0.00088   0.00000   0.00000   0.00002   0.02111
  41       17D 0       -0.00000  -0.00001   0.00001  -0.00012   0.00001
  42       17D+1       -0.00001  -0.00183   0.00066   0.00001   0.00242
  43       17D-1       -0.00000  -0.00066  -0.00183   0.00001   0.00085
  44       17D+2       -0.00059   0.00001  -0.00000  -0.00000   0.00003
  45       17D-2       -0.00194   0.00001  -0.00000  -0.00001  -0.00925
  46       18F 0       -0.00442   0.00002   0.00000   0.00000   0.00072
  47       18F+1        0.00003   0.00129   0.00226   0.00000   0.00008
  48       18F-1       -0.00000   0.00226  -0.00129  -0.00001   0.00012
  49       18F+2       -0.00000  -0.00001  -0.00003  -0.00017  -0.00000
  50       18F-2       -0.00000   0.00001   0.00001  -0.00095   0.00000
  51       18F+3        0.00002   0.00157  -0.00303   0.00000  -0.00001
  52       18F-3        0.00001   0.00303   0.00157   0.00000   0.00018
  53       19F 0       -0.00381   0.00002   0.00000   0.00000   0.00385
  54       19F+1        0.00003   0.00109   0.00200   0.00001   0.00044
  55       19F-1       -0.00000   0.00200  -0.00109  -0.00004   0.00058
  56       19F+2       -0.00000  -0.00001  -0.00002  -0.00158  -0.00001
  57       19F-2       -0.00000   0.00001   0.00001  -0.00706   0.00001
  58       19F+3        0.00002   0.00132  -0.00264   0.00002  -0.00026
  59       19F-3        0.00001   0.00264   0.00132   0.00003   0.00098
  60       20G 0        0.00000  -0.00000   0.00000  -0.00043   0.00000
  61       20G+1       -0.00000  -0.00009   0.00002   0.00000   0.00005
  62       20G-1        0.00000  -0.00002  -0.00009  -0.00000   0.00003
  63       20G+2        0.00004  -0.00000   0.00000   0.00000   0.00014
  64       20G-2        0.00024  -0.00000   0.00000   0.00000   0.00042
  65       20G+3       -0.00000  -0.00018   0.00016  -0.00000   0.00012
  66       20G-3       -0.00000   0.00016   0.00018  -0.00000  -0.00011
  67       20G+4        0.00000   0.00000  -0.00000  -0.00038   0.00000
  68       20G-4        0.00000  -0.00000  -0.00000   0.00011   0.00000
  69 2   O  1S          0.00271   0.00131  -0.00356  -0.10561   0.08944
  70        2S         -0.00516  -0.00256   0.00679   0.24187  -0.20503
  71        3S         -0.00092  -0.00038   0.00124   0.07336  -0.06242
  72        4S         -0.00817  -0.00616   0.01075   0.14637  -0.11922
  73        5PX        -0.00153  -0.00105   0.00146  -0.00720   0.00684
  74        5PY         0.00181   0.00034  -0.00208   0.01331  -0.01210
  75        5PZ         0.00106   0.00081  -0.00224   0.00659  -0.00652
  76        6PX        -0.00253  -0.00156   0.00233  -0.00675   0.00644
  77        6PY         0.00277   0.00050  -0.00318   0.01409  -0.01304
  78        6PZ         0.00169   0.00117  -0.00347   0.00584  -0.00588
  79        7PX        -0.00168  -0.00091   0.00030   0.00561  -0.00571
  80        7PY         0.00101  -0.00061  -0.00073  -0.00475   0.00719
  81        7PZ        -0.00034   0.00010  -0.00157  -0.00563   0.00306
  82        8D 0        0.00002   0.00001   0.00003   0.00016  -0.00021
  83        8D+1        0.00008   0.00007  -0.00012   0.00095  -0.00078
  84        8D-1       -0.00009  -0.00002   0.00018   0.00064  -0.00059
  85        8D+2        0.00001  -0.00001  -0.00004   0.00040  -0.00040
  86        8D-2        0.00013   0.00003  -0.00012  -0.00054   0.00049
  87        9D 0        0.00068  -0.00032   0.00046   0.00054  -0.00023
  88        9D+1        0.00128   0.00106  -0.00178   0.00084  -0.00086
  89        9D-1       -0.00179  -0.00077   0.00263   0.00415  -0.00309
  90        9D+2        0.00038  -0.00083  -0.00053   0.00106  -0.00054
  91        9D-2        0.00203   0.00099  -0.00195  -0.00376   0.00281
  92       10F 0       -0.00031  -0.00012   0.00026   0.00054  -0.00042
  93       10F+1       -0.00002  -0.00020   0.00027   0.00077  -0.00063
  94       10F-1       -0.00003   0.00009  -0.00027   0.00044  -0.00035
  95       10F+2       -0.00007   0.00021   0.00011  -0.00048   0.00038
  96       10F-2       -0.00044  -0.00029   0.00055   0.00081  -0.00067
  97       10F+3        0.00030  -0.00001  -0.00026  -0.00025   0.00024
  98       10F-3        0.00015   0.00022  -0.00007   0.00060  -0.00047
  99 3   H  1S         -0.00007  -0.00010   0.00051   0.04066  -0.03462
 100        2S          0.00056   0.00146  -0.00227   0.03423  -0.03340
 101        3S         -0.00050   0.00013   0.00047   0.00132  -0.00393
 102        4PX         0.00004   0.00002   0.00007   0.00615  -0.00518
 103        4PY         0.00009  -0.00002  -0.00010  -0.00278   0.00246
 104        4PZ         0.00012   0.00012  -0.00015   0.00174  -0.00160
 105        5PX         0.00027   0.00064  -0.00098   0.00632  -0.00731
 106        5PY         0.00001  -0.00024   0.00018  -0.00241   0.00212
 107        5PZ         0.00058   0.00026  -0.00055   0.00226  -0.00202
 108        6D 0        0.00011   0.00007  -0.00012  -0.00074   0.00066
 109        6D+1        0.00024   0.00011  -0.00024   0.00054  -0.00053
 110        6D-1       -0.00001  -0.00004  -0.00001  -0.00027   0.00028
 111        6D+2        0.00005   0.00003  -0.00013   0.00094  -0.00092
 112        6D-2        0.00009  -0.00007   0.00002  -0.00112   0.00101
 113 4   O  1S         -0.00268   0.00359   0.00131  -0.10602  -0.14727
 114        2S          0.00509  -0.00684  -0.00256   0.24281   0.33758
 115        3S          0.00091  -0.00125  -0.00038   0.07364   0.10268
 116        4S          0.00807  -0.01083  -0.00615   0.14692   0.20142
 117        5PX        -0.00179   0.00211   0.00034   0.01342   0.02011
 118        5PY        -0.00151   0.00147   0.00104   0.00718   0.01114
 119        5PZ         0.00104  -0.00225  -0.00081  -0.00660  -0.01057
 120        6PX        -0.00274   0.00321   0.00050   0.01422   0.02180
 121        6PY        -0.00250   0.00234   0.00155   0.00672   0.01072
 122        6PZ         0.00167  -0.00349  -0.00118  -0.00583  -0.00991
 123        7PX        -0.00100   0.00074  -0.00061  -0.00477  -0.00838
 124        7PY        -0.00168   0.00030   0.00091  -0.00560  -0.00810
 125        7PZ        -0.00035  -0.00157  -0.00011   0.00568   0.00621
 126        8D 0       -0.00002  -0.00003   0.00001   0.00015   0.00026
 127        8D+1       -0.00009   0.00018   0.00002  -0.00065  -0.00096
 128        8D-1       -0.00008   0.00012   0.00007   0.00095   0.00131
 129        8D+2        0.00001  -0.00004   0.00001  -0.00040  -0.00059
 130        8D-2        0.00013  -0.00012  -0.00003   0.00053   0.00080
 131        9D 0       -0.00068  -0.00046  -0.00033   0.00051   0.00061
 132        9D+1       -0.00177   0.00266   0.00078  -0.00419  -0.00528
 133        9D-1       -0.00126   0.00178   0.00106   0.00086   0.00151
 134        9D+2        0.00038  -0.00054   0.00082  -0.00106  -0.00128
 135        9D-2        0.00201  -0.00196  -0.00098   0.00374   0.00462
 136       10F 0       -0.00031   0.00026   0.00012  -0.00053  -0.00073
 137       10F+1        0.00004   0.00027   0.00009   0.00044   0.00061
 138       10F-1       -0.00002   0.00027   0.00020  -0.00078  -0.00109
 139       10F+2        0.00007  -0.00011   0.00021  -0.00048  -0.00065
 140       10F-2        0.00044  -0.00056  -0.00029   0.00082   0.00117
 141       10F+3        0.00015  -0.00007  -0.00022  -0.00061  -0.00082
 142       10F-3       -0.00030   0.00026  -0.00000  -0.00026  -0.00039
 143 5   H  1S          0.00040  -0.00015  -0.00027   0.04047   0.05693
 144        2S         -0.00220   0.00174   0.00214   0.03387   0.04942
 145        3S          0.00036  -0.00064  -0.00001   0.00129   0.00366
 146        4PX        -0.00011   0.00006  -0.00001  -0.00305  -0.00423
 147        4PY        -0.00013   0.00018   0.00011   0.00198   0.00285
 148        4PZ         0.00003   0.00004  -0.00003   0.00593   0.00827
 149        5PX         0.00027  -0.00018  -0.00042  -0.00266  -0.00406
 150        5PY        -0.00045   0.00077   0.00029   0.00266   0.00408
 151        5PZ        -0.00087   0.00070   0.00082   0.00611   0.00959
 152        6D 0       -0.00007  -0.00002  -0.00001   0.00109   0.00153
[...]
 286         V                 6.745491         11.969303
 287         V                 6.763733         11.682266
 288         V                 6.763812         11.682631
 289         V                 7.006409         11.002455
 290         V                 7.060393         11.456807
 291         V                 7.060458         11.456252
 292         V                 7.070044         11.181239
 293         V                 7.121078         11.900389
 294         V                 7.142167         11.959301
 295         V                 7.142295         11.959002
 296         V                 7.438261         12.954910
 297         V                11.713715         33.326617
 298         V                11.713820         33.326761
 299         V                11.804915         33.625344
 300         V                11.811161         33.672149
 Total kinetic energy from orbitals= 1.452768479178D+03
 Calling FoFJK, ICntrl=      2527 FMM=F ISym2X=0 I1Cent= 4 IOpClX= 0 NMat=1 NMatS=1 NMatT=0.
 ***** Axes restored to original set *****
 -------------------------------------------------------------------
 Center     Atomic                   Forces (Hartrees/Bohr)
 Number     Number              X              Y              Z
 -------------------------------------------------------------------
      1       25          -0.000000000   -0.000000000   -0.000000000
      2        8          -0.000000000   -0.000000000   -0.000000000
      3        1           0.000001222    0.000013857    0.000008538
      4        8          -0.000000000   -0.000000000   -0.000000000
      5        1          -0.000001317    0.000026622    0.000040235
      6        8          -0.000000000   -0.000000000   -0.000000000
      7        1          -0.000010097    0.000023775   -0.000005815
      8        8          -0.000000000   -0.000000000   -0.000000000
      9        1          -0.000007110   -0.000013462    0.000011157
     10        1          -0.000005772    0.000014482    0.000000039
     11        1           0.000014163    0.000000235   -0.000004860
     12        1           0.000015218    0.000010063   -0.000016517
     13        1           0.000006201    0.000001130    0.000002807
 -------------------------------------------------------------------
 Cartesian Forces:  Max     0.000040235 RMS     0.000011063

 GradGradGradGradGradGradGradGradGradGradGradGradGradGradGradGradGradGrad
 Berny optimization.
 FormGI is forming the generalized inverse of G from B-inverse, IUseBI=4.
 Internal  Forces:  Max     0.000043056 RMS     0.000014059
 Search for a local minimum.
 Step number   1 out of a maximum of   69
 All quantities printed in internal units (Hartrees-Bohrs-Radians)
 Mixed Optimization -- En-DIIS/RFO-DIIS
 Second derivative matrix not updated -- first step.
 ITU=  0
     Eigenvalues ---    0.04340   0.04340   0.04340   0.04340   0.04380
     Eigenvalues ---    0.04381   0.04381   0.04382   0.16000   0.16000
     Eigenvalues ---    0.16000   0.16000   0.16000   0.16000   0.16000
     Eigenvalues ---    0.16000   0.48366   0.48369   0.48372   0.48374
     Eigenvalues ---    0.48436   0.48440   0.48441   0.484421000.00000
     Eigenvalues --- 1000.000001000.000001000.000001000.000001000.00000
     Eigenvalues --- 1000.000001000.000001000.000001000.000001000.00000
     Eigenvalues --- 1000.000001000.000001000.000001000.000001000.00000
     Eigenvalues --- 1000.000001000.000001000.000001000.000001000.00000
     Eigenvalues --- 1000.000001000.000001000.000001000.000001000.00000
     Eigenvalues --- 1000.000001000.000001000.000001000.000001000.00000
     Eigenvalues --- 1000.000001000.000001000.000001000.00000
 RFO step:  Lambda=-5.69220312D-08 EMin= 4.34018664D-02
 Linear search not attempted -- first point.
 Iteration  1 RMS(Cart)=  0.00012702 RMS(Int)=  0.00000002
 Iteration  2 RMS(Cart)=  0.00000002 RMS(Int)=  0.00000001
 Variable       Old X    -DE/DX   Delta X   Delta X   Delta X     New X
                                 (Linear)    (Quad)   (Total)
    X1        0.00002  -0.00000   0.00000   0.00000  -0.00000   0.00002
    Y1        0.00005  -0.00000   0.00000   0.00000   0.00000   0.00005
    Z1        0.00002   0.00000   0.00000   0.00000   0.00000   0.00002
    X2        1.82019   0.00002   0.00000   0.00000   0.00000   1.82019
    Y2        2.16769   0.00003   0.00000   0.00000   0.00000   2.16769
    Z2       -1.98680  -0.00000   0.00000   0.00000   0.00000  -1.98680
    X4       -2.17157  -0.00001   0.00000   0.00000   0.00000  -2.17157
    Y4        1.81010   0.00004   0.00000   0.00000   0.00000   1.81010
    Z4        1.99176   0.00004   0.00000   0.00000   0.00000   1.99176
    X6       -1.80605   0.00001   0.00000   0.00000   0.00000  -1.80605
    Y6       -2.16141   0.00002   0.00000   0.00000   0.00000  -2.16141
    Z6       -2.00630  -0.00001   0.00000   0.00000   0.00000  -2.00630
    X8        2.15752  -0.00000   0.00000   0.00000   0.00000   2.15752
    Y8       -1.81618  -0.00002   0.00000   0.00000   0.00000  -1.81618
    Z8        2.00144   0.00001   0.00000   0.00000   0.00000   2.00144
    R1        1.88172   0.00001   0.00000   0.00002   0.00002   1.88174
    R2        1.88244   0.00001   0.00000   0.00003   0.00003   1.88247
    R3        1.88242   0.00003   0.00000   0.00005   0.00005   1.88248
    R4        1.88171   0.00002   0.00000   0.00003   0.00003   1.88174
    R5        1.88251  -0.00001   0.00000  -0.00002  -0.00002   1.88249
    R6        1.88177  -0.00001   0.00000  -0.00003  -0.00003   1.88174
    R7        1.88248   0.00000   0.00000   0.00000   0.00000   1.88248
    R8        1.88173   0.00000   0.00000   0.00000   0.00000   1.88174
    A1        2.16457  -0.00001   0.00000  -0.00008  -0.00008   2.16449
    A2        2.22583   0.00002   0.00000   0.00015   0.00015   2.22598
    A3        1.88155  -0.00001   0.00000  -0.00008  -0.00008   1.88148
    A4        2.22573   0.00003   0.00000   0.00022   0.00022   2.22595
    A5        2.16437  -0.00001   0.00000  -0.00006  -0.00006   2.16431
    A6        1.88151  -0.00002   0.00000  -0.00010  -0.00010   1.88141
    A7        2.22631  -0.00000   0.00000  -0.00001  -0.00001   2.22630
    A8        2.16407   0.00001   0.00000   0.00004   0.00004   2.16411
    A9        1.88136  -0.00000   0.00000   0.00000   0.00000   1.88136
   A10        2.22603   0.00001   0.00000   0.00006   0.00006   2.22609
   A11        2.16429   0.00000   0.00000   0.00001   0.00001   2.16430
   A12        1.88149  -0.00001   0.00000  -0.00005  -0.00005   1.88144
    D1        1.56678  -0.00001   0.00000  -0.00015  -0.00015   1.56663
    D2       -1.39439  -0.00001   0.00000  -0.00008  -0.00008  -1.39447
    D3       -2.62201  -0.00001   0.00000  -0.00015  -0.00015  -2.62216
    D4        0.70001  -0.00000   0.00000  -0.00008  -0.00008   0.69993
    D5       -0.52761  -0.00000   0.00000  -0.00015  -0.00015  -0.52776
    D6        2.79441   0.00000   0.00000  -0.00008  -0.00008   2.79432
    D7       -2.79656   0.00002   0.00000   0.00035   0.00035  -2.79621
    D8        0.52814  -0.00000   0.00000  -0.00005  -0.00005   0.52810
    D9        1.39223   0.00002   0.00000   0.00035   0.00035   1.39259
   D10       -1.56625   0.00000   0.00000  -0.00005  -0.00005  -1.56630
   D11       -0.70216   0.00001   0.00000   0.00035   0.00035  -0.70181
   D12        2.62254  -0.00001   0.00000  -0.00005  -0.00005   2.62249
   D13        0.70240  -0.00001   0.00000  -0.00029  -0.00029   0.70211
   D14       -2.62140   0.00000   0.00000  -0.00006  -0.00006  -2.62145
   D15        2.79679  -0.00002   0.00000  -0.00029  -0.00029   2.79651
   D16       -0.52700  -0.00001   0.00000  -0.00006  -0.00006  -0.52706
   D17       -1.39200  -0.00001   0.00000  -0.00029  -0.00029  -1.39228
   D18        1.56739  -0.00000   0.00000  -0.00006  -0.00006   1.56734
   D19        1.39326   0.00000   0.00000   0.00019   0.00019   1.39346
   D20       -1.56668  -0.00000   0.00000   0.00004   0.00004  -1.56664
   D21       -0.70113   0.00002   0.00000   0.00019   0.00019  -0.70094
   D22        2.62211   0.00001   0.00000   0.00004   0.00004   2.62215
   D23       -2.79553   0.00000   0.00000   0.00019   0.00019  -2.79533
   D24        0.52771  -0.00000   0.00000   0.00004   0.00004   0.52775
         Item               Value     Threshold  Converged?
 Maximum Force            0.000033     0.000450     YES
 RMS     Force            0.000011     0.000300     YES
 Maximum Displacement     0.000534     0.001800     YES
 RMS     Displacement     0.000127     0.001200     YES
 Predicted change in Energy=-2.846117D-08
 Optimization completed.
    -- Stationary point found.
                           ----------------------------
                           !   Optimized Parameters   !
                           ! (Angstroms and Degrees)  !
 --------------------------                            --------------------------
 ! Name  Definition              Value          Derivative Info.                !
 --------------------------------------------------------------------------------
 ! X1    R(1,-1)                 0.0            -DE/DX =    0.0                 !
 ! Y1    R(1,-2)                 0.0            -DE/DX =    0.0                 !
 ! Z1    R(1,-3)                 0.0            -DE/DX =    0.0                 !
 ! X2    R(2,-1)                 0.9632         -DE/DX =    0.0                 !
 ! Y2    R(2,-2)                 1.1471         -DE/DX =    0.0                 !
 ! Z2    R(2,-3)                -1.0514         -DE/DX =    0.0                 !
 ! X4    R(4,-1)                -1.1491         -DE/DX =    0.0                 !
 ! Y4    R(4,-2)                 0.9579         -DE/DX =    0.0                 !
 ! Z4    R(4,-3)                 1.054          -DE/DX =    0.0                 !
 ! X6    R(6,-1)                -0.9557         -DE/DX =    0.0                 !
 ! Y6    R(6,-2)                -1.1438         -DE/DX =    0.0                 !
 ! Z6    R(6,-3)                -1.0617         -DE/DX =    0.0                 !
 ! X8    R(8,-1)                 1.1417         -DE/DX =    0.0                 !
 ! Y8    R(8,-2)                -0.9611         -DE/DX =    0.0                 !
 ! Z8    R(8,-3)                 1.0591         -DE/DX =    0.0                 !
 ! R1    R(2,3)                  0.9958         -DE/DX =    0.0                 !
 ! R2    R(2,12)                 0.9961         -DE/DX =    0.0                 !
 ! R3    R(4,5)                  0.9961         -DE/DX =    0.0                 !
 ! R4    R(4,10)                 0.9958         -DE/DX =    0.0                 !
 ! R5    R(6,7)                  0.9962         -DE/DX =    0.0                 !
 ! R6    R(6,11)                 0.9958         -DE/DX =    0.0                 !
 ! R7    R(8,9)                  0.9962         -DE/DX =    0.0                 !
 ! R8    R(8,13)                 0.9958         -DE/DX =    0.0                 !
 ! A1    A(1,2,3)              124.021          -DE/DX =    0.0                 !
 ! A2    A(1,2,12)             127.5306         -DE/DX =    0.0                 !
 ! A3    A(3,2,12)             107.8052         -DE/DX =    0.0                 !
 ! A4    A(1,4,5)              127.5252         -DE/DX =    0.0                 !
 ! A5    A(1,4,10)             124.0094         -DE/DX =    0.0                 !
 ! A6    A(5,4,10)             107.8028         -DE/DX =    0.0                 !
 ! A7    A(1,6,7)              127.5583         -DE/DX =    0.0                 !
 ! A8    A(1,6,11)             123.992          -DE/DX =    0.0                 !
 ! A9    A(7,6,11)             107.7937         -DE/DX =    0.0                 !
 ! A10   A(1,8,9)              127.542          -DE/DX =    0.0                 !
 ! A11   A(1,8,13)             124.0044         -DE/DX =    0.0                 !
 ! A12   A(9,8,13)             107.8016         -DE/DX =    0.0                 !
 ! D1    D(4,1,2,3)             89.7701         -DE/DX =    0.0                 !
 ! D2    D(4,1,2,12)           -79.8924         -DE/DX =    0.0                 !
 ! D3    D(6,1,2,3)           -150.2299         -DE/DX =    0.0                 !
 ! D4    D(6,1,2,12)            40.1076         -DE/DX =    0.0                 !
 ! D5    D(8,1,2,3)            -30.2299         -DE/DX =    0.0                 !
 ! D6    D(8,1,2,12)           160.1076         -DE/DX =    0.0                 !
 ! D7    D(2,1,4,5)           -160.2311         -DE/DX =    0.0                 !
 ! D8    D(2,1,4,10)            30.2603         -DE/DX =    0.0                 !
 ! D9    D(6,1,4,5)             79.7689         -DE/DX =    0.0                 !
 ! D10   D(6,1,4,10)           -89.7397         -DE/DX =    0.0                 !
 ! D11   D(8,1,4,5)            -40.2311         -DE/DX =    0.0                 !
 ! D12   D(8,1,4,10)           150.2603         -DE/DX =    0.0                 !
 ! D13   D(2,1,6,7)             40.2444         -DE/DX =    0.0                 !
 ! D14   D(2,1,6,11)          -150.1949         -DE/DX =    0.0                 !
 ! D15   D(4,1,6,7)            160.2444         -DE/DX =    0.0                 !
 ! D16   D(4,1,6,11)           -30.1949         -DE/DX =    0.0                 !
 ! D17   D(8,1,6,7)            -79.7556         -DE/DX =    0.0                 !
 ! D18   D(8,1,6,11)            89.8051         -DE/DX =    0.0                 !
 ! D19   D(2,1,8,9)             79.8281         -DE/DX =    0.0                 !
 ! D20   D(2,1,8,13)           -89.7644         -DE/DX =    0.0                 !
 ! D21   D(4,1,8,9)            -40.1719         -DE/DX =    0.0                 !
 ! D22   D(4,1,8,13)           150.2356         -DE/DX =    0.0                 !
 ! D23   D(6,1,8,9)           -160.1719         -DE/DX =    0.0                 !
 ! D24   D(6,1,8,13)            30.2356         -DE/DX =    0.0                 !
 --------------------------------------------------------------------------------
 GradGradGradGradGradGradGradGradGradGradGradGradGradGradGradGradGradGrad

                          Input orientation:                          
 ---------------------------------------------------------------------
 Center     Atomic      Atomic             Coordinates (Angstroms)
 Number     Number       Type             X           Y           Z
 ---------------------------------------------------------------------
      1         25           0        0.000012    0.000027    0.000013
      2          8           0        0.963204    1.147091   -1.051371
      3          1           0        1.834105    1.549329   -0.784392
      4          8           0       -1.149146    0.957866    1.053996
      5          1           0       -1.592605    0.659926    1.894747
      6          8           0       -0.955718   -1.143767   -1.061690
      7          1           0       -0.656541   -1.583373   -1.904078
      8          8           0        1.141711   -0.961080    1.059116
      9          1           0        1.578728   -0.666282    1.904370
     10          1           0       -1.551105    1.829889    0.790290
     11          1           0       -1.828726   -1.546197   -0.801869
     12          1           0        0.670216    1.587610   -1.895414
     13          1           0        1.545218   -1.832465    0.795622
 ---------------------------------------------------------------------
                    Distance matrix (angstroms):
                    1          2          3          4          5
     1  Mn   0.000000
     2  O    1.830000   0.000000
     3  H    2.525771   0.995762   0.000000
     4  O    1.830000   2.988377   3.553771   0.000000
     5  H    2.561623   3.930534   4.439725   0.996135   0.000000
     6  O    1.830000   2.988377   3.887515   2.988378   3.521286
     7  H    2.561988   3.287266   4.155820   3.930746   4.509954
     8  O    1.830000   2.988378   3.190624   2.988378   3.286704
     9  H    2.561813   3.521874   3.493364   3.286683   3.437481
    10  H    2.525648   3.190561   3.744060   0.995760   1.609460
    11  H    2.525492   3.887277   4.795719   3.190047   3.492059
    12  H    2.561686   0.996146   1.609494   3.522170   4.510685
    13  H    2.525606   3.553573   3.743852   3.887454   4.155240
                    6          7          8          9         10
     6  O    0.000000
     7  H    0.996182   0.000000
     8  O    2.988378   3.521573   0.000000
     9  H    3.930512   4.510184   0.996165   0.000000
    10  H    3.553442   4.439620   3.887548   4.155466   0.000000
    11  H    0.995791   1.609430   3.553748   4.439451   3.742994
    12  H    3.286210   3.437367   3.930315   4.510408   3.493705
    13  H    3.190392   3.492589   0.995771   1.609480   4.795840
                   11         12         13
    11  H    0.000000
    12  H    4.154672   0.000000
    13  H    3.743986   4.438943   0.000000
 Stoichiometry    H8MnO4(3+)
 Framework group  C1[X(H8MnO4)]
 Deg. of freedom    33
 Full point group                 C1      NOp   1
 Largest Abelian subgroup         C1      NOp   1
 Largest concise Abelian subgroup C1      NOp   1
                         Standard orientation:                         
 ---------------------------------------------------------------------
 Center     Atomic      Atomic             Coordinates (Angstroms)
 Number     Number       Type             X           Y           Z
 ---------------------------------------------------------------------
      1         25           0       -0.000012    0.000027   -0.000013
      2          8           0       -0.963190    1.147103    1.051371
      3          1           0       -1.834086    1.549351    0.784392
      4          8           0        1.149157    0.957852   -1.053996
      5          1           0        1.592613    0.659907   -1.894747
      6          8           0        0.955705   -1.143779    1.061690
      7          1           0        0.656522   -1.583381    1.904078
      8          8           0       -1.141722   -0.961066   -1.059116
      9          1           0       -1.578736   -0.666263   -1.904370
     10          1           0        1.551127    1.829871   -0.790290
     11          1           0        1.828708   -1.546219    0.801869
     12          1           0       -0.670197    1.587618    1.895414
     13          1           0       -1.545240   -1.832446   -0.795622
 ---------------------------------------------------------------------
 Rotational constants (GHZ):      2.8477657      2.8476657      2.8403438
 1\1\GINC-HECTOR-MACBOOKAIR\FOpt\RPBEPBE\CC-pVTZ/def2TZV\H8Mn1O4(3+)\HE
 CTOR\08-Aug-2024\0\\# opt pbepbe/cc-pvtz/def2tzv pop=full geom=connect
 ivity output=wfx\\Mn3_tetraedrico_cc-pvtz-def2-tzv_1\\3,1\Mn,0.0000123
 9,0.00002736,0.00001278\O,0.96320371,1.14709093,-1.05137115\H,1.834104
 82,1.54932867,-0.78439238\O,-1.1491459,0.95786573,1.05399636\H,-1.5926
 0466,0.6599264,1.89474692\O,-0.95571842,-1.14376716,-1.06169021\H,-0.6
 5654124,-1.58337333,-1.90407835\O,1.14171064,-0.96107962,1.05911571\H,
 1.57872814,-0.66628184,1.9043698\H,-1.55110506,1.82988947,0.79029028\H
 ,-1.82872628,-1.54619722,-0.80186948\H,0.67021607,1.58760974,-1.895414
 42\H,1.54521808,-1.83246488,0.79562245\\Version=EM64L-G09RevE.01\State
 =1-A\HF=-1455.9901977\RMSD=4.471e-09\RMSF=1.106e-05\Dipole=-0.0004273,
 -0.0010764,-0.0005514\Quadrupole=0.1255331,0.1150794,-0.2406125,-0.000
 2859,-0.0014272,-0.0000236\PG=C01 [X(H8Mn1O4)]\\@

 Writing a WFNX file to "Mn3_tetraedrico_cc-pvtz-def2-tzv_1.wfx"


 TO DETECT ERRORS, THE PROGRAMMER MUST HAVE A CONNIVING MIND,
 ONE THAT DELIGHTS IN UNCOVERING FLAWS WHERE BEAUTY AND
 PERFECTION WERE ONCE THOUGHT TO LIE.

             -- THE PSYCHOLOGY OF COMPUTER PROGRAMMING
                GERALD M. WEINBERG
 Job cpu time:       0 days  0 hours  2 minutes 44.9 seconds.
 File lengths (MBytes):  RWF=     49 Int=      0 D2E=      0 Chk=      7 Scr=      1
 Normal termination of Gaussian 09 at Thu Aug  8 14:20:44 2024.
