 Entering Gaussian System, Link 0=g09
 Input=Ni23.com
 Output=Ni23.log
 Initial command:
 /opt/SC/aplicaciones/g09-D.01/l1.exe "/tmpu/fercor_g/daram_a/Gau-41942.inp" -scrdir="/tmpu/fercor_g/daram_a/"
 Entering Link 1 = /opt/SC/aplicaciones/g09-D.01/l1.exe PID=     41943.
  
 Copyright (c) 1988,1990,1992,1993,1995,1998,2003,2009,2013,
            Gaussian, Inc.  All Rights Reserved.
  
 This is part of the Gaussian(R) 09 program.  It is based on
 the Gaussian(R) 03 system (copyright 2003, Gaussian, Inc.),
 the Gaussian(R) 98 system (copyright 1998, Gaussian, Inc.),
 the Gaussian(R) 94 system (copyright 1995, Gaussian, Inc.),
 the Gaussian 92(TM) system (copyright 1992, Gaussian, Inc.),
 the Gaussian 90(TM) system (copyright 1990, Gaussian, Inc.),
 the Gaussian 88(TM) system (copyright 1988, Gaussian, Inc.),
 the Gaussian 86(TM) system (copyright 1986, Carnegie Mellon
 University), and the Gaussian 82(TM) system (copyright 1983,
 Carnegie Mellon University). Gaussian is a federally registered
 trademark of Gaussian, Inc.
  
 This software contains proprietary and confidential information,
 including trade secrets, belonging to Gaussian, Inc.
  
 This software is provided under written license and may be
 used, copied, transmitted, or stored only in accord with that
 written license.
  
 The following legend is applicable only to US Government
 contracts under FAR:
  
                    RESTRICTED RIGHTS LEGEND
  
 Use, reproduction and disclosure by the US Government is
 subject to restrictions as set forth in subparagraphs (a)
 and (c) of the Commercial Computer Software - Restricted
 Rights clause in FAR 52.227-19.
  
 Gaussian, Inc.
 340 Quinnipiac St., Bldg. 40, Wallingford CT 06492
  
  
 ---------------------------------------------------------------
 Warning -- This program may not be used in any manner that
 competes with the business of Gaussian, Inc. or will provide
 assistance to any competitor of Gaussian, Inc.  The licensee
 of this program is prohibited from giving any competitor of
 Gaussian, Inc. access to this program.  By using this program,
 the user acknowledges that Gaussian, Inc. is engaged in the
 business of creating and licensing software in the field of
 computational chemistry and represents and warrants to the
 licensee that it is not a competitor of Gaussian, Inc. and that
 it will not use this program in any manner prohibited above.
 ---------------------------------------------------------------
  

 Cite this work as:
 Gaussian 09, Revision D.01,
 M. J. Frisch, G. W. Trucks, H. B. Schlegel, G. E. Scuseria, 
 M. A. Robb, J. R. Cheeseman, G. Scalmani, V. Barone, B. Mennucci, 
 G. A. Petersson, H. Nakatsuji, M. Caricato, X. Li, H. P. Hratchian, 
 A. F. Izmaylov, J. Bloino, G. Zheng, J. L. Sonnenberg, M. Hada, 
 M. Ehara, K. Toyota, R. Fukuda, J. Hasegawa, M. Ishida, T. Nakajima, 
 Y. Honda, O. Kitao, H. Nakai, T. Vreven, J. A. Montgomery, Jr., 
 J. E. Peralta, F. Ogliaro, M. Bearpark, J. J. Heyd, E. Brothers, 
 K. N. Kudin, V. N. Staroverov, T. Keith, R. Kobayashi, J. Normand, 
 K. Raghavachari, A. Rendell, J. C. Burant, S. S. Iyengar, J. Tomasi, 
 M. Cossi, N. Rega, J. M. Millam, M. Klene, J. E. Knox, J. B. Cross, 
 V. Bakken, C. Adamo, J. Jaramillo, R. Gomperts, R. E. Stratmann, 
 O. Yazyev, A. J. Austin, R. Cammi, C. Pomelli, J. W. Ochterski, 
 R. L. Martin, K. Morokuma, V. G. Zakrzewski, G. A. Voth, 
 P. Salvador, J. J. Dannenberg, S. Dapprich, A. D. Daniels, 
 O. Farkas, J. B. Foresman, J. V. Ortiz, J. Cioslowski, 
 and D. J. Fox, Gaussian, Inc., Wallingford CT, 2013.
 
 ******************************************
 Gaussian 09:  ES64L-G09RevD.01 24-Apr-2013
                29-Jun-2015 
 ******************************************
 %nprocshared=16
 Will use up to   16 processors via shared memory.
 %mem=32GB
 %chk=Ni23.chk
 -------------------------------------------------
 # opt 6-311++g(2d,2p) m062x output=wfnx scf=tight
 -------------------------------------------------
 1/14=-1,18=20,19=15,26=3,38=1/1,3;
 2/9=110,12=2,17=6,18=5,40=1/2;
 3/5=4,6=6,7=1212,11=2,16=1,25=1,30=1,71=1,74=-55/1,2,3;
 4//1;
 5/5=2,32=2,38=5/2;
 6/7=2,8=2,9=2,10=2,28=1/1;
 7//1,2,3,16;
 1/14=-1,18=20,19=15,26=3/3(2);
 2/9=110/2;
 99/6=200/99;
 2/9=110/2;
 3/5=4,6=6,7=1212,11=2,16=1,25=1,30=1,71=1,74=-55/1,2,3;
 4/5=5,16=3,69=1/1;
 5/5=2,32=2,38=5/2;
 7//1,2,3,16;
 1/14=-1,18=20,19=15,26=3/3(-5);
 2/9=110/2;
 6/7=2,8=2,9=2,10=2,19=2,28=1/1;
 99/6=200,9=1/99;
 -------------
 Ni[H2O]6 (2+)
 -------------
 Symbolic Z-matrix:
 Charge =  2 Multiplicity = 3
 Ni                    0.        0.        0. 
 O                    -2.07501   0.01284  -0.00456 
 H                    -2.64739  -0.76229   0.01161 
 H                    -2.63585   0.79605   0.02554 
 O                     0.01927  -0.03211   2.07405 
 H                    -0.74768  -0.02797   2.65757 
 H                     0.81073  -0.03948   2.62392 
 O                     0.00683   2.07567   0.02918 
 H                     0.0143    2.65397  -0.74178 
 H                     0.02192   2.63066   0.81689 
 O                     2.07501  -0.01284   0.00456 
 H                     2.64739   0.76229  -0.01161 
 H                     2.63585  -0.79605  -0.02554 
 O                    -0.01927   0.03211  -2.07405 
 H                     0.74768   0.02797  -2.65757 
 H                    -0.81073   0.03948  -2.62392 
 O                    -0.00683  -2.07567  -0.02918 
 H                    -0.0143   -2.65397   0.74178 
 H                    -0.02192  -2.63066  -0.81689 
 
 Add virtual bond connecting atoms O8         and Ni1        Dist= 3.92D+00.
 Add virtual bond connecting atoms O17        and Ni1        Dist= 3.92D+00.

 GradGradGradGradGradGradGradGradGradGradGradGradGradGradGradGradGradGrad
 Berny optimization.
 Initialization pass.
                           ----------------------------
                           !    Initial Parameters    !
                           ! (Angstroms and Degrees)  !
 --------------------------                            --------------------------
 ! Name  Definition              Value          Derivative Info.                !
 --------------------------------------------------------------------------------
 ! R1    R(1,2)                  2.0751         estimate D2E/DX2                !
 ! R2    R(1,5)                  2.0744         estimate D2E/DX2                !
 ! R3    R(1,8)                  2.0759         estimate D2E/DX2                !
 ! R4    R(1,11)                 2.0751         estimate D2E/DX2                !
 ! R5    R(1,14)                 2.0744         estimate D2E/DX2                !
 ! R6    R(1,17)                 2.0759         estimate D2E/DX2                !
 ! R7    R(2,3)                  0.9637         estimate D2E/DX2                !
 ! R8    R(2,4)                  0.9638         estimate D2E/DX2                !
 ! R9    R(5,6)                  0.9637         estimate D2E/DX2                !
 ! R10   R(5,7)                  0.9638         estimate D2E/DX2                !
 ! R11   R(8,9)                  0.9638         estimate D2E/DX2                !
 ! R12   R(8,10)                 0.9637         estimate D2E/DX2                !
 ! R13   R(11,12)                0.9637         estimate D2E/DX2                !
 ! R14   R(11,13)                0.9638         estimate D2E/DX2                !
 ! R15   R(14,15)                0.9637         estimate D2E/DX2                !
 ! R16   R(14,16)                0.9638         estimate D2E/DX2                !
 ! R17   R(17,18)                0.9638         estimate D2E/DX2                !
 ! R18   R(17,19)                0.9637         estimate D2E/DX2                !
 ! A1    A(2,1,5)               90.6637         estimate D2E/DX2                !
 ! A2    A(2,1,8)               89.8356         estimate D2E/DX2                !
 ! A3    A(2,1,14)              89.3363         estimate D2E/DX2                !
 ! A4    A(2,1,17)              90.1644         estimate D2E/DX2                !
 ! A5    A(5,1,8)               90.0799         estimate D2E/DX2                !
 ! A6    A(5,1,11)              89.3363         estimate D2E/DX2                !
 ! A7    A(5,1,17)              89.9201         estimate D2E/DX2                !
 ! A8    A(8,1,11)              90.1644         estimate D2E/DX2                !
 ! A9    A(8,1,14)              89.9201         estimate D2E/DX2                !
 ! A10   A(11,1,14)             90.6637         estimate D2E/DX2                !
 ! A11   A(11,1,17)             89.8356         estimate D2E/DX2                !
 ! A12   A(14,1,17)             90.0799         estimate D2E/DX2                !
 ! A13   A(1,2,3)              126.0801         estimate D2E/DX2                !
 ! A14   A(1,2,4)              125.9355         estimate D2E/DX2                !
 ! A15   A(3,2,4)              107.9074         estimate D2E/DX2                !
 ! A16   A(1,5,6)              126.7227         estimate D2E/DX2                !
 ! A17   A(1,5,7)              125.3246         estimate D2E/DX2                !
 ! A18   A(6,5,7)              107.946          estimate D2E/DX2                !
 ! A19   A(1,8,9)              126.0685         estimate D2E/DX2                !
 ! A20   A(1,8,10)             125.9704         estimate D2E/DX2                !
 ! A21   A(9,8,10)             107.9496         estimate D2E/DX2                !
 ! A22   A(1,11,12)            126.0801         estimate D2E/DX2                !
 ! A23   A(1,11,13)            125.9355         estimate D2E/DX2                !
 ! A24   A(12,11,13)           107.9074         estimate D2E/DX2                !
 ! A25   A(1,14,15)            126.7227         estimate D2E/DX2                !
 ! A26   A(1,14,16)            125.3246         estimate D2E/DX2                !
 ! A27   A(15,14,16)           107.946          estimate D2E/DX2                !
 ! A28   A(1,17,18)            126.0685         estimate D2E/DX2                !
 ! A29   A(1,17,19)            125.9704         estimate D2E/DX2                !
 ! A30   A(18,17,19)           107.9496         estimate D2E/DX2                !
 ! A31   L(2,1,11,5,-1)        180.0            estimate D2E/DX2                !
 ! A32   L(5,1,14,2,-1)        180.0            estimate D2E/DX2                !
 ! A33   L(8,1,17,2,-1)        180.0            estimate D2E/DX2                !
 ! A34   L(2,1,11,5,-2)        180.0            estimate D2E/DX2                !
 ! A35   L(5,1,14,2,-2)        180.0            estimate D2E/DX2                !
 ! A36   L(8,1,17,2,-2)        180.0            estimate D2E/DX2                !
 ! D1    D(5,1,2,3)            -87.8346         estimate D2E/DX2                !
 ! D2    D(5,1,2,4)             88.5812         estimate D2E/DX2                !
 ! D3    D(8,1,2,3)           -177.9126         estimate D2E/DX2                !
 ! D4    D(8,1,2,4)             -1.4968         estimate D2E/DX2                !
 ! D5    D(14,1,2,3)            92.1654         estimate D2E/DX2                !
 ! D6    D(14,1,2,4)           -91.4188         estimate D2E/DX2                !
 ! D7    D(17,1,2,3)             2.0874         estimate D2E/DX2                !
 ! D8    D(17,1,2,4)           178.5032         estimate D2E/DX2                !
 ! D9    D(3,2,11,12)          180.0            estimate D2E/DX2                !
 ! D10   D(3,2,11,13)            3.5842         estimate D2E/DX2                !
 ! D11   D(4,2,11,12)           -3.5842         estimate D2E/DX2                !
 ! D12   D(4,2,11,13)          180.0            estimate D2E/DX2                !
 ! D13   D(2,1,5,6)             -0.6248         estimate D2E/DX2                !
 ! D14   D(2,1,5,7)           -179.5637         estimate D2E/DX2                !
 ! D15   D(8,1,5,6)             89.2117         estimate D2E/DX2                !
 ! D16   D(8,1,5,7)            -89.7272         estimate D2E/DX2                !
 ! D17   D(11,1,5,6)           179.3752         estimate D2E/DX2                !
 ! D18   D(11,1,5,7)             0.4363         estimate D2E/DX2                !
 ! D19   D(17,1,5,6)           -90.7883         estimate D2E/DX2                !
 ! D20   D(17,1,5,7)            90.2728         estimate D2E/DX2                !
 ! D21   D(6,5,14,15)          180.0            estimate D2E/DX2                !
 ! D22   D(6,5,14,16)           -1.0611         estimate D2E/DX2                !
 ! D23   D(7,5,14,15)            1.0611         estimate D2E/DX2                !
 ! D24   D(7,5,14,16)          180.0            estimate D2E/DX2                !
 ! D25   D(2,1,8,9)            -90.2812         estimate D2E/DX2                !
 ! D26   D(2,1,8,10)            91.1027         estimate D2E/DX2                !
 ! D27   D(5,1,8,9)            179.0553         estimate D2E/DX2                !
 ! D28   D(5,1,8,10)             0.4392         estimate D2E/DX2                !
 ! D29   D(11,1,8,9)            89.7188         estimate D2E/DX2                !
 ! D30   D(11,1,8,10)          -88.8973         estimate D2E/DX2                !
 ! D31   D(14,1,8,9)            -0.9447         estimate D2E/DX2                !
 ! D32   D(14,1,8,10)         -179.5608         estimate D2E/DX2                !
 ! D33   D(9,8,17,18)          180.0            estimate D2E/DX2                !
 ! D34   D(9,8,17,19)           -1.3839         estimate D2E/DX2                !
 ! D35   D(10,8,17,18)           1.3839         estimate D2E/DX2                !
 ! D36   D(10,8,17,19)         180.0            estimate D2E/DX2                !
 ! D37   D(5,1,11,12)          -92.1654         estimate D2E/DX2                !
 ! D38   D(5,1,11,13)           91.4188         estimate D2E/DX2                !
 ! D39   D(8,1,11,12)           -2.0874         estimate D2E/DX2                !
 ! D40   D(8,1,11,13)         -178.5032         estimate D2E/DX2                !
 ! D41   D(14,1,11,12)          87.8346         estimate D2E/DX2                !
 ! D42   D(14,1,11,13)         -88.5812         estimate D2E/DX2                !
 ! D43   D(17,1,11,12)         177.9126         estimate D2E/DX2                !
 ! D44   D(17,1,11,13)           1.4968         estimate D2E/DX2                !
 ! D45   D(2,1,14,15)         -179.3752         estimate D2E/DX2                !
 ! D46   D(2,1,14,16)           -0.4363         estimate D2E/DX2                !
 ! D47   D(8,1,14,15)           90.7883         estimate D2E/DX2                !
 ! D48   D(8,1,14,16)          -90.2728         estimate D2E/DX2                !
 ! D49   D(11,1,14,15)           0.6248         estimate D2E/DX2                !
 ! D50   D(11,1,14,16)         179.5637         estimate D2E/DX2                !
 ! D51   D(17,1,14,15)         -89.2117         estimate D2E/DX2                !
 ! D52   D(17,1,14,16)          89.7272         estimate D2E/DX2                !
 ! D53   D(2,1,17,18)          -89.7188         estimate D2E/DX2                !
 ! D54   D(2,1,17,19)           88.8973         estimate D2E/DX2                !
 ! D55   D(5,1,17,18)            0.9447         estimate D2E/DX2                !
 ! D56   D(5,1,17,19)          179.5608         estimate D2E/DX2                !
 ! D57   D(11,1,17,18)          90.2812         estimate D2E/DX2                !
 ! D58   D(11,1,17,19)         -91.1027         estimate D2E/DX2                !
 ! D59   D(14,1,17,18)        -179.0553         estimate D2E/DX2                !
 ! D60   D(14,1,17,19)          -0.4392         estimate D2E/DX2                !
 --------------------------------------------------------------------------------
 Trust Radius=3.00D-01 FncErr=1.00D-07 GrdErr=1.00D-06
 Number of steps in this run=    114 maximum allowed number of steps=    114.
 GradGradGradGradGradGradGradGradGradGradGradGradGradGradGradGradGradGrad

                          Input orientation:                          
 ---------------------------------------------------------------------
 Center     Atomic      Atomic             Coordinates (Angstroms)
 Number     Number       Type             X           Y           Z
 ---------------------------------------------------------------------
      1         28           0        0.000000    0.000000    0.000000
      2          8           0       -2.075008    0.012845   -0.004563
      3          1           0       -2.647390   -0.762287    0.011610
      4          1           0       -2.635850    0.796046    0.025545
      5          8           0        0.019270   -0.032113    2.074046
      6          1           0       -0.747683   -0.027968    2.657574
      7          1           0        0.810726   -0.039480    2.623918
      8          8           0        0.006827    2.075675    0.029180
      9          1           0        0.014297    2.653971   -0.741779
     10          1           0        0.021915    2.630659    0.816891
     11          8           0        2.075008   -0.012845    0.004563
     12          1           0        2.647390    0.762287   -0.011610
     13          1           0        2.635850   -0.796046   -0.025545
     14          8           0       -0.019270    0.032113   -2.074046
     15          1           0        0.747683    0.027968   -2.657574
     16          1           0       -0.810726    0.039480   -2.623918
     17          8           0       -0.006827   -2.075675   -0.029180
     18          1           0       -0.014297   -2.653971    0.741779
     19          1           0       -0.021915   -2.630659   -0.816891
 ---------------------------------------------------------------------
                    Distance matrix (angstroms):
                    1          2          3          4          5
     1  Ni   0.000000
     2  O    2.075053   0.000000
     3  H    2.754976   0.963697   0.000000
     4  H    2.753552   0.963771   1.558438   0.000000
     5  O    2.074384   2.951039   3.449329   3.454254   0.000000
     6  H    2.760890   2.974967   3.339047   3.342417   0.963711
     7  H    2.746595   3.903730   4.393765   4.396424   0.963752
     8  O    2.075891   2.930945   3.885769   2.936189   2.936733
     9  H    2.755722   3.447351   4.395793   3.326252   3.891522
    10  H    2.754661   3.453234   4.391554   3.325019   2.944622
    11  O    2.075053   4.150105   4.781501   4.779846   2.917052
    12  H    2.754976   4.781501   5.509951   5.283479   3.447905
    13  H    2.753552   4.779846   5.283479   5.507104   3.440693
    14  O    2.074384   2.917052   3.447905   3.440693   4.148768
    15  H    2.760890   3.873795   4.390396   4.386043   4.787737
    16  H    2.746595   2.908632   3.310917   3.305015   4.771256
    17  O    2.075891   2.939369   2.949445   3.893782   2.932641
    18  H    2.755722   3.451879   3.323371   4.391829   2.941123
    19  H    2.754661   3.444296   3.327213   4.391430   3.887371
                    6          7          8          9         10
     6  H    0.000000
     7  H    1.558816   0.000000
     8  O    3.450081   3.442789   0.000000
     9  H    4.396478   4.383708   0.963774   0.000000
    10  H    3.323957   3.319218   0.963704   1.558863   0.000000
    11  O    3.873795   2.908632   2.939369   3.451879   3.444296
    12  H    4.390396   3.310917   2.949445   3.323371   3.327213
    13  H    4.386043   3.305015   3.893782   4.391829   4.391430
    14  O    4.787737   4.771256   2.932641   2.941123   3.887371
    15  H    5.521780   5.282299   3.458412   3.332269   4.401437
    16  H    5.282299   5.493189   3.442878   3.325459   4.387103
    17  O    3.458412   3.442878   4.151782   4.783074   4.781865
    18  H    3.332269   3.325459   4.783074   5.511445   5.285288
    19  H    4.401437   4.387103   4.781865   5.285288   5.509322
                   11         12         13         14         15
    11  O    0.000000
    12  H    0.963697   0.000000
    13  H    0.963771   1.558438   0.000000
    14  O    2.951039   3.449329   3.454254   0.000000
    15  H    2.974967   3.339047   3.342417   0.963711   0.000000
    16  H    3.903730   4.393765   4.396424   0.963752   1.558816
    17  O    2.930945   3.885769   2.936189   2.936733   3.450081
    18  H    3.447351   4.395793   3.326252   3.891522   4.396478
    19  H    3.453234   4.391554   3.325019   2.944622   3.323957
                   16         17         18         19
    16  H    0.000000
    17  O    3.442789   0.000000
    18  H    4.383708   0.963774   0.000000
    19  H    3.319218   0.963704   1.558863   0.000000
 Stoichiometry    H12NiO6(2+,3)
 Framework group  CI[O(Ni),X(H12O6)]
 Deg. of freedom    24
 Full point group                 CI      NOp   2
 Largest Abelian subgroup         CI      NOp   2
 Largest concise Abelian subgroup CI      NOp   2
                         Standard orientation:                         
 ---------------------------------------------------------------------
 Center     Atomic      Atomic             Coordinates (Angstroms)
 Number     Number       Type             X           Y           Z
 ---------------------------------------------------------------------
      1         28           0        0.000000    0.000000    0.000000
      2          8           0       -2.075008    0.012845   -0.004563
      3          1           0       -2.647390   -0.762287    0.011610
      4          1           0       -2.635850    0.796046    0.025545
      5          8           0        0.019270   -0.032113    2.074046
      6          1           0       -0.747683   -0.027968    2.657574
      7          1           0        0.810726   -0.039480    2.623918
      8          8           0        0.006827    2.075675    0.029180
      9          1           0        0.014297    2.653971   -0.741779
     10          1           0        0.021915    2.630659    0.816891
     11          8           0        2.075008   -0.012845    0.004563
     12          1           0        2.647390    0.762287   -0.011610
     13          1           0        2.635850   -0.796046   -0.025545
     14          8           0       -0.019270    0.032113   -2.074046
     15          1           0        0.747683    0.027968   -2.657574
     16          1           0       -0.810726    0.039480   -2.623918
     17          8           0       -0.006827   -2.075675   -0.029180
     18          1           0       -0.014297   -2.653971    0.741779
     19          1           0       -0.021915   -2.630659   -0.816891
 ---------------------------------------------------------------------
 Rotational constants (GHZ):      1.5088661      1.5012748      1.4932697
 Standard basis: 6-311++G(2d,2p) (5D, 7F)
 There are   181 symmetry adapted cartesian basis functions of AG  symmetry.
 There are   188 symmetry adapted cartesian basis functions of AU  symmetry.
 There are   171 symmetry adapted basis functions of AG  symmetry.
 There are   176 symmetry adapted basis functions of AU  symmetry.
   347 basis functions,   500 primitive gaussians,   369 cartesian basis functions
    44 alpha electrons       42 beta electrons
       nuclear repulsion energy       703.3113546569 Hartrees.
 NAtoms=   19 NActive=   19 NUniq=   10 SFac= 3.61D+00 NAtFMM=   60 NAOKFM=F Big=F
 Integral buffers will be    131072 words long.
 Raffenetti 2 integral format.
 Two-electron integral symmetry is turned on.
 One-electron integrals computed using PRISM.
 NBasis=   347 RedAO= T EigKep=  2.74D-04  NBF=   171   176
 NBsUse=   347 1.00D-06 EigRej= -1.00D+00 NBFU=   171   176
 ExpMin= 1.39D-02 ExpMax= 2.85D+05 ExpMxC= 9.63D+03 IAcc=3 IRadAn=         5 AccDes= 0.00D+00
 Harris functional with IExCor= 1009 and IRadAn=       5 diagonalized for initial guess.
 HarFok:  IExCor= 1009 AccDes= 0.00D+00 IRadAn=         5 IDoV= 1 UseB2=F ITyADJ=14
 ICtDFT=  3500011 ScaDFX=  1.000000  1.000000  1.000000  1.000000
 FoFCou: FMM=F IPFlag=           0 FMFlag=      100000 FMFlg1=           0
         NFxFlg=           0 DoJE=T BraDBF=F KetDBF=T FulRan=T
         wScrn=  0.000000 ICntrl=     500 IOpCl=  0 I1Cent=   200000004 NGrid=           0
         NMat0=    1 NMatS0=      1 NMatT0=    0 NMatD0=    1 NMtDS0=    0 NMtDT0=    0
 Petite list used in FoFCou.
 Initial guess orbital symmetries:
 Alpha Orbitals:
       Occupied  (AG) (AG) (AU) (AU) (AU) (AG) (AU) (AG) (AU) (AG)
                 (AU) (AG) (AU) (AU) (AU) (AG) (AU) (AU) (AU) (AG)
                 (AG) (AG) (AG) (AG) (AU) (AU) (AU) (AG) (AU) (AU)
                 (AU) (AG) (AG) (AG) (AG) (AG) (AU) (AU) (AU) (AG)
                 (AG) (AG) (AG) (AG)
       Virtual   (AG) (AU) (AU) (AU) (AG) (AG) (AG) (AG) (AG) (AU)
                 (AU) (AU) (AG) (AU) (AU) (AU) (AG) (AG) (AG) (AG)
                 (AG) (AG) (AG) (AU) (AU) (AU) (AU) (AU) (AU) (AU)
                 (AU) (AU) (AG) (AG) (AG) (AG) (AG) (AG) (AU) (AU)
                 (AU) (AG) (AG) (AG) (AU) (AU) (AU) (AG) (AG) (AG)
                 (AG) (AU) (AU) (AU) (AG) (AG) (AG) (AU) (AU) (AU)
                 (AG) (AG) (AU) (AU) (AU) (AG) (AG) (AG) (AU) (AU)
                 (AU) (AG) (AU) (AU) (AU) (AG) (AG) (AG) (AG) (AG)
                 (AU) (AU) (AU) (AG) (AG) (AG) (AG) (AG) (AU) (AU)
                 (AU) (AG) (AU) (AU) (AU) (AU) (AG) (AG) (AU) (AG)
                 (AU) (AU) (AU) (AU) (AG) (AG) (AG) (AG) (AG) (AG)
                 (AG) (AG) (AU) (AG) (AU) (AU) (AG) (AG) (AG) (AG)
                 (AG) (AU) (AU) (AU) (AU) (AU) (AU) (AG) (AU) (AU)
                 (AU) (AG) (AG) (AU) (AG) (AG) (AG) (AG) (AU) (AU)
                 (AU) (AU) (AU) (AG) (AG) (AG) (AG) (AG) (AU) (AU)
                 (AU) (AG) (AG) (AG) (AU) (AG) (AU) (AU) (AU) (AG)
                 (AG) (AU) (AU) (AU) (AU) (AU) (AU) (AG) (AU) (AU)
                 (AU) (AG) (AG) (AG) (AG) (AG) (AG) (AU) (AU) (AU)
                 (AG) (AG) (AU) (AU) (AU) (AG) (AG) (AG) (AU) (AU)
                 (AU) (AU) (AU) (AU) (AG) (AG) (AG) (AG) (AG) (AG)
                 (AU) (AU) (AU) (AU) (AU) (AU) (AG) (AG) (AG) (AG)
                 (AG) (AG) (AG) (AU) (AU) (AU) (AG) (AG) (AU) (AU)
                 (AU) (AG) (AU) (AU) (AU) (AG) (AG) (AG) (AG) (AG)
                 (AG) (AU) (AU) (AU) (AU) (AU) (AG) (AU) (AG) (AG)
                 (AG) (AG) (AG) (AU) (AU) (AU) (AG) (AG) (AG) (AG)
                 (AG) (AU) (AU) (AU) (AU) (AU) (AU) (AG) (AG) (AG)
                 (AG) (AG) (AG) (AU) (AU) (AU) (AG) (AU) (AU) (AU)
                 (AG) (AG) (AG) (AU) (AU) (AU) (AU) (AG) (AG) (AG)
                 (AU) (AU) (AU) (AG) (AG) (AU) (AU) (AU) (AU) (AU)
                 (AU) (AG) (AU) (AU) (AU) (AU) (AU) (AU) (AG) (AG)
                 (AG) (AG) (AG)
 Beta  Orbitals:
       Occupied  (AG) (AG) (AU) (AU) (AU) (AG) (AU) (AG) (AU) (AG)
                 (AU) (AG) (AU) (AU) (AU) (AG) (AU) (AU) (AU) (AG)
                 (AG) (AG) (AG) (AG) (AU) (AU) (AU) (AG) (AU) (AU)
                 (AU) (AG) (AG) (AG) (AG) (AG) (AU) (AU) (AU) (AG)
                 (AG) (AG)
       Virtual   (AG) (AG) (AG) (AU) (AU) (AU) (AG) (AG) (AG) (AG)
                 (AG) (AU) (AU) (AU) (AG) (AU) (AU) (AU) (AG) (AG)
                 (AG) (AG) (AG) (AG) (AG) (AU) (AU) (AU) (AU) (AU)
                 (AU) (AU) (AU) (AU) (AG) (AG) (AG) (AG) (AG) (AG)
                 (AU) (AU) (AU) (AG) (AG) (AG) (AU) (AU) (AU) (AG)
                 (AG) (AG) (AG) (AU) (AU) (AU) (AG) (AG) (AG) (AU)
                 (AU) (AU) (AG) (AG) (AU) (AU) (AU) (AG) (AG) (AG)
                 (AU) (AU) (AU) (AG) (AU) (AU) (AU) (AG) (AG) (AG)
                 (AG) (AG) (AU) (AU) (AU) (AG) (AG) (AG) (AG) (AG)
                 (AU) (AU) (AU) (AG) (AU) (AU) (AU) (AU) (AG) (AG)
                 (AU) (AG) (AU) (AU) (AU) (AU) (AG) (AG) (AG) (AG)
                 (AG) (AG) (AG) (AG) (AU) (AG) (AU) (AU) (AG) (AG)
                 (AG) (AG) (AG) (AU) (AU) (AU) (AU) (AU) (AU) (AG)
                 (AU) (AU) (AU) (AG) (AG) (AU) (AG) (AG) (AG) (AG)
                 (AU) (AU) (AU) (AU) (AU) (AG) (AG) (AG) (AG) (AG)
                 (AU) (AU) (AU) (AG) (AG) (AG) (AU) (AG) (AU) (AU)
                 (AU) (AG) (AG) (AU) (AU) (AU) (AU) (AU) (AU) (AG)
                 (AU) (AU) (AU) (AG) (AG) (AG) (AG) (AG) (AG) (AU)
                 (AU) (AU) (AG) (AG) (AU) (AU) (AU) (AG) (AG) (AG)
                 (AU) (AU) (AU) (AU) (AU) (AU) (AG) (AG) (AG) (AG)
                 (AG) (AG) (AU) (AU) (AU) (AU) (AU) (AU) (AG) (AG)
                 (AG) (AG) (AG) (AG) (AG) (AU) (AU) (AU) (AG) (AG)
                 (AU) (AU) (AU) (AG) (AU) (AU) (AU) (AG) (AG) (AG)
                 (AG) (AG) (AG) (AU) (AU) (AU) (AU) (AU) (AG) (AU)
                 (AG) (AG) (AG) (AG) (AG) (AU) (AU) (AU) (AG) (AG)
                 (AG) (AG) (AG) (AU) (AU) (AU) (AU) (AU) (AU) (AG)
                 (AG) (AG) (AG) (AG) (AG) (AU) (AU) (AU) (AG) (AU)
                 (AU) (AU) (AG) (AG) (AG) (AU) (AU) (AU) (AU) (AG)
                 (AG) (AG) (AU) (AU) (AU) (AG) (AG) (AU) (AU) (AU)
                 (AU) (AU) (AU) (AG) (AU) (AU) (AU) (AU) (AU) (AU)
                 (AG) (AG) (AG) (AG) (AG)
 The electronic state of the initial guess is 3-AG.
 Initial guess <Sx>= 0.0000 <Sy>= 0.0000 <Sz>= 1.0000 <S**2>= 2.0000 S= 1.0000
 Keep R1 and R2 ints in memory in symmetry-blocked form, NReq=2734803760.
 Requested convergence on RMS density matrix=1.00D-08 within 128 cycles.
 Requested convergence on MAX density matrix=1.00D-06.
 Requested convergence on             energy=1.00D-06.
 No special actions if energy rises.
 EnCoef did   100 forward-backward iterations
 SCF Done:  E(UM062X) =  -1966.35739889     A.U. after   19 cycles
            NFock= 19  Conv=0.21D-08     -V/T= 2.0015
 <Sx>= 0.0000 <Sy>= 0.0000 <Sz>= 1.0000 <S**2>= 2.0039 S= 1.0013
 <L.S>= 0.000000000000E+00
 Annihilation of the first spin contaminant:
 S**2 before annihilation     2.0039,   after     2.0000

 **********************************************************************

            Population analysis using the SCF density.

 **********************************************************************

 Orbital symmetries:
 Alpha Orbitals:
       Occupied  (AG) (AG) (AU) (AU) (AU) (AG) (AU) (AU) (AG) (AG)
                 (AU) (AG) (AU) (AU) (AU) (AG) (AU) (AU) (AU) (AG)
                 (AG) (AG) (AG) (AG) (AU) (AU) (AU) (AG) (AG) (AG)
                 (AU) (AU) (AU) (AG) (AG) (AG) (AG) (AG) (AU) (AU)
                 (AU) (AG) (AG) (AG)
       Virtual   (AG) (AU) (AU) (AU) (AG) (AG) (AG) (AG) (AG) (AU)
                 (AU) (AU) (AG) (AU) (AU) (AU) (AG) (AG) (AG) (AG)
                 (AU) (AU) (AU) (AG) (AG) (AG) (AU) (AU) (AU) (AG)
                 (AG) (AG) (AU) (AU) (AU) (AG) (AG) (AG) (AG) (AG)
                 (AG) (AU) (AU) (AU) (AU) (AU) (AU) (AG) (AG) (AG)
                 (AG) (AU) (AU) (AU) (AG) (AU) (AG) (AU) (AG) (AU)
                 (AG) (AG) (AU) (AU) (AU) (AG) (AG) (AG) (AU) (AU)
                 (AU) (AG) (AU) (AU) (AU) (AG) (AG) (AG) (AG) (AG)
                 (AU) (AU) (AU) (AG) (AG) (AG) (AG) (AG) (AG) (AU)
                 (AU) (AU) (AU) (AU) (AU) (AG) (AG) (AG) (AU) (AU)
                 (AU) (AU) (AG) (AU) (AU) (AG) (AG) (AG) (AG) (AG)
                 (AG) (AG) (AG) (AU) (AU) (AU) (AG) (AG) (AU) (AU)
                 (AG) (AG) (AG) (AU) (AU) (AU) (AU) (AG) (AU) (AU)
                 (AU) (AG) (AG) (AU) (AG) (AG) (AG) (AU) (AU) (AU)
                 (AG) (AU) (AU) (AG) (AG) (AG) (AG) (AG) (AU) (AU)
                 (AU) (AG) (AG) (AG) (AU) (AG) (AU) (AU) (AU) (AG)
                 (AG) (AU) (AU) (AU) (AU) (AU) (AU) (AG) (AU) (AU)
                 (AU) (AG) (AG) (AG) (AG) (AG) (AG) (AU) (AU) (AU)
                 (AG) (AG) (AU) (AU) (AU) (AG) (AG) (AG) (AU) (AU)
                 (AU) (AU) (AU) (AU) (AG) (AG) (AG) (AG) (AG) (AG)
                 (AU) (AU) (AU) (AU) (AU) (AU) (AG) (AG) (AG) (AG)
                 (AG) (AG) (AG) (AU) (AU) (AU) (AU) (AU) (AG) (AG)
                 (AU) (AG) (AU) (AU) (AU) (AG) (AG) (AG) (AG) (AG)
                 (AG) (AU) (AU) (AU) (AG) (AU) (AU) (AU) (AG) (AG)
                 (AG) (AG) (AG) (AU) (AU) (AU) (AG) (AG) (AG) (AG)
                 (AG) (AU) (AU) (AU) (AU) (AU) (AU) (AG) (AG) (AG)
                 (AG) (AG) (AG) (AU) (AU) (AU) (AG) (AU) (AU) (AU)
                 (AU) (AG) (AG) (AG) (AU) (AU) (AU) (AG) (AG) (AG)
                 (AU) (AU) (AU) (AG) (AG) (AU) (AU) (AU) (AU) (AU)
                 (AU) (AG) (AU) (AU) (AU) (AU) (AU) (AU) (AG) (AG)
                 (AG) (AG) (AG)
 Beta  Orbitals:
       Occupied  (AG) (AG) (AU) (AU) (AU) (AG) (AU) (AU) (AG) (AG)
                 (AU) (AG) (AU) (AU) (AU) (AG) (AU) (AU) (AU) (AG)
                 (AG) (AG) (AG) (AG) (AU) (AU) (AU) (AG) (AU) (AU)
                 (AU) (AG) (AG) (AG) (AG) (AG) (AU) (AU) (AU) (AG)
                 (AG) (AG)
       Virtual   (AG) (AG) (AG) (AU) (AU) (AU) (AG) (AG) (AG) (AG)
                 (AG) (AU) (AU) (AU) (AG) (AU) (AU) (AU) (AG) (AG)
                 (AG) (AG) (AU) (AU) (AU) (AG) (AG) (AG) (AU) (AU)
                 (AU) (AG) (AG) (AG) (AU) (AU) (AU) (AG) (AG) (AG)
                 (AG) (AG) (AG) (AU) (AU) (AU) (AU) (AU) (AU) (AG)
                 (AG) (AG) (AG) (AU) (AU) (AU) (AG) (AU) (AG) (AG)
                 (AU) (AU) (AG) (AG) (AU) (AU) (AU) (AG) (AG) (AG)
                 (AU) (AU) (AU) (AG) (AU) (AU) (AU) (AG) (AG) (AG)
                 (AG) (AG) (AU) (AU) (AU) (AG) (AG) (AG) (AG) (AG)
                 (AG) (AU) (AU) (AU) (AU) (AU) (AU) (AG) (AG) (AG)
                 (AU) (AU) (AU) (AU) (AU) (AG) (AU) (AG) (AG) (AG)
                 (AG) (AG) (AG) (AG) (AG) (AU) (AU) (AU) (AG) (AG)
                 (AU) (AU) (AU) (AG) (AG) (AG) (AU) (AU) (AU) (AG)
                 (AU) (AU) (AU) (AG) (AG) (AU) (AG) (AG) (AG) (AU)
                 (AU) (AU) (AG) (AU) (AU) (AG) (AG) (AG) (AG) (AG)
                 (AU) (AU) (AU) (AG) (AG) (AG) (AU) (AG) (AU) (AU)
                 (AU) (AG) (AG) (AU) (AU) (AU) (AU) (AU) (AU) (AG)
                 (AU) (AU) (AU) (AG) (AG) (AG) (AG) (AG) (AG) (AU)
                 (AU) (AU) (AG) (AG) (AU) (AU) (AU) (AG) (AG) (AG)
                 (AU) (AU) (AU) (AU) (AU) (AU) (AG) (AG) (AG) (AG)
                 (AG) (AG) (AU) (AU) (AU) (AU) (AU) (AU) (AG) (AG)
                 (AG) (AG) (AG) (AG) (AG) (AU) (AU) (AU) (AU) (AU)
                 (AG) (AG) (AU) (AG) (AU) (AU) (AU) (AG) (AG) (AG)
                 (AG) (AG) (AG) (AU) (AU) (AU) (AG) (AU) (AU) (AU)
                 (AG) (AG) (AG) (AG) (AG) (AU) (AU) (AU) (AG) (AG)
                 (AG) (AU) (AU) (AU) (AG) (AG) (AU) (AU) (AU) (AG)
                 (AG) (AG) (AG) (AG) (AG) (AU) (AU) (AU) (AG) (AU)
                 (AU) (AU) (AG) (AU) (AG) (AG) (AU) (AU) (AU) (AG)
                 (AG) (AG) (AU) (AU) (AU) (AG) (AG) (AU) (AU) (AU)
                 (AU) (AU) (AU) (AG) (AU) (AU) (AU) (AU) (AU) (AU)
                 (AG) (AG) (AG) (AG) (AG)
 The electronic state is 3-AG.
 Alpha  occ. eigenvalues -- -302.18973 -36.79769 -32.23684 -32.23676 -32.23668
 Alpha  occ. eigenvalues --  -19.96569 -19.96569 -19.96569 -19.96569 -19.96557
 Alpha  occ. eigenvalues --  -19.96557  -4.68851  -3.27037  -3.27019  -3.27003
 Alpha  occ. eigenvalues --   -1.48319  -1.47478  -1.47447  -1.47444  -1.47208
 Alpha  occ. eigenvalues --   -1.47199  -0.95566  -0.95546  -0.95538  -0.95293
 Alpha  occ. eigenvalues --   -0.95273  -0.95262  -0.92978  -0.92963  -0.90328
 Alpha  occ. eigenvalues --   -0.85063  -0.84966  -0.84927  -0.84125  -0.84114
 Alpha  occ. eigenvalues --   -0.84106  -0.75647  -0.75628  -0.74513  -0.74475
 Alpha  occ. eigenvalues --   -0.74398  -0.73781  -0.73770  -0.73762
 Alpha virt. eigenvalues --   -0.28748  -0.24798  -0.24781  -0.24743  -0.21310
 Alpha virt. eigenvalues --   -0.21308  -0.19668  -0.19648  -0.19626  -0.17245
 Alpha virt. eigenvalues --   -0.17227  -0.17217  -0.15240  -0.12592  -0.12552
 Alpha virt. eigenvalues --   -0.12505  -0.09150  -0.09146  -0.08510  -0.07963
 Alpha virt. eigenvalues --   -0.07151  -0.07101  -0.07082  -0.06432  -0.06309
 Alpha virt. eigenvalues --   -0.06238  -0.04207  -0.04188  -0.04145  -0.02931
 Alpha virt. eigenvalues --   -0.02916  -0.02889  -0.02844  -0.02786  -0.02726
 Alpha virt. eigenvalues --   -0.02591  -0.02589   0.01434   0.01662   0.01780
 Alpha virt. eigenvalues --    0.02681   0.03311   0.03334   0.03369   0.05652
 Alpha virt. eigenvalues --    0.05674   0.05721   0.09406   0.14898   0.15885
 Alpha virt. eigenvalues --    0.15890   0.17901   0.17948   0.18001   0.19086
 Alpha virt. eigenvalues --    0.19237   0.19647   0.19941   0.19988   0.20029
 Alpha virt. eigenvalues --    0.29122   0.29139   0.31093   0.31132   0.31227
 Alpha virt. eigenvalues --    0.34094   0.34302   0.34585   0.35627   0.35668
 Alpha virt. eigenvalues --    0.35692   0.35855   0.38178   0.40661   0.40683
 Alpha virt. eigenvalues --    0.43512   0.43644   0.43935   0.47513   0.47536
 Alpha virt. eigenvalues --    0.53020   0.53460   0.53782   0.62013   0.62119
 Alpha virt. eigenvalues --    0.62163   0.63800   0.63839   0.64881   0.65285
 Alpha virt. eigenvalues --    0.65494   0.65589   0.68338   0.68475   0.68573
 Alpha virt. eigenvalues --    0.73565   0.73652   0.73784   0.75112   0.75465
 Alpha virt. eigenvalues --    0.75814   0.87655   0.87790   0.87851   0.88004
 Alpha virt. eigenvalues --    0.90535   0.90743   0.90944   0.94551   0.94632
 Alpha virt. eigenvalues --    0.98723   0.99468   1.00216   1.00450   1.00883
 Alpha virt. eigenvalues --    1.01623   1.07829   1.07840   1.17126   1.17166
 Alpha virt. eigenvalues --    1.17167   1.17224   1.17231   1.17256   1.20003
 Alpha virt. eigenvalues --    1.20138   1.20152   1.24354   1.36272   1.36543
 Alpha virt. eigenvalues --    1.36761   1.37680   1.37802   1.41951   1.43504
 Alpha virt. eigenvalues --    1.43794   1.43807   1.44784   1.45113   1.45250
 Alpha virt. eigenvalues --    1.45718   1.50350   1.50409   1.53943   1.54137
 Alpha virt. eigenvalues --    1.54454   1.60005   1.60080   1.62298   1.62693
 Alpha virt. eigenvalues --    1.63172   1.67951   1.68186   1.68363   1.71157
 Alpha virt. eigenvalues --    1.81725   1.83291   1.83617   1.83720   1.95310
 Alpha virt. eigenvalues --    1.95360   1.95716   1.96002   1.96084   1.98660
 Alpha virt. eigenvalues --    1.98856   1.99076   2.07162   2.08291   2.08612
 Alpha virt. eigenvalues --    2.09080   2.16374   2.16660   2.16793   2.24717
 Alpha virt. eigenvalues --    2.24827   2.27537   2.34839   2.34907   2.35059
 Alpha virt. eigenvalues --    2.54848   2.54908   2.57045   2.57140   2.57177
 Alpha virt. eigenvalues --    2.60097   2.60254   2.60519   2.72583   2.72725
 Alpha virt. eigenvalues --    2.73510   3.39793   3.41939   3.41980   3.42948
 Alpha virt. eigenvalues --    3.43675   3.44170   3.52211   3.52289   3.52322
 Alpha virt. eigenvalues --    3.53197   3.53352   3.53411   3.58392   3.58571
 Alpha virt. eigenvalues --    3.58634   3.59667   3.59680   3.59698   3.69971
 Alpha virt. eigenvalues --    3.82590   3.82763   3.82806   3.85345   3.85460
 Alpha virt. eigenvalues --    3.85472   3.86288   3.86476   3.86510   3.86547
 Alpha virt. eigenvalues --    3.86747   3.95806   3.96226   3.96349   3.96513
 Alpha virt. eigenvalues --    4.03600   4.03642   4.15748   4.91402   4.91583
 Alpha virt. eigenvalues --    4.91750   4.92789   4.92911   4.93124   5.46024
 Alpha virt. eigenvalues --    5.46763   5.46910   5.47160   5.55035   5.55054
 Alpha virt. eigenvalues --    5.93115   5.93219   5.93439   5.95550   5.95572
 Alpha virt. eigenvalues --    5.95729   6.46138   6.46219   6.48195   6.48261
 Alpha virt. eigenvalues --    6.48295   6.52709   6.53636   6.53753   6.53831
 Alpha virt. eigenvalues --    6.54384   6.54670   6.60968   6.61115   6.61302
 Alpha virt. eigenvalues --    6.69109   6.69338   6.69457   6.71131   6.71348
 Alpha virt. eigenvalues --    6.71690   6.82753   6.93218   6.93409   6.93487
 Alpha virt. eigenvalues --    6.94741   6.96840   6.99916   6.99944   7.02816
 Alpha virt. eigenvalues --    7.02849   7.02937   7.14605   7.14717   7.14723
 Alpha virt. eigenvalues --    7.15944   7.16061   7.16174   7.32492   7.32587
 Alpha virt. eigenvalues --    7.45159   7.45355   7.45781   8.80117   8.80453
 Alpha virt. eigenvalues --    8.81074  30.16994  36.34139  36.34446  36.34959
 Alpha virt. eigenvalues --   49.77071  49.77187  49.77376  49.78416  49.78422
 Alpha virt. eigenvalues --   49.79292 162.57661 845.05576
  Beta  occ. eigenvalues -- -302.19089 -36.73206 -32.18342 -32.18342 -32.18341
  Beta  occ. eigenvalues --  -19.96466 -19.96465 -19.96465 -19.96465 -19.96454
  Beta  occ. eigenvalues --  -19.96454  -4.59156  -3.13991  -3.13991  -3.13989
  Beta  occ. eigenvalues --   -1.48123  -1.47276  -1.47245  -1.47242  -1.46974
  Beta  occ. eigenvalues --   -1.46965  -0.95363  -0.95345  -0.95337  -0.95197
  Beta  occ. eigenvalues --   -0.95177  -0.95167  -0.89914  -0.84513  -0.84411
  Beta  occ. eigenvalues --   -0.84368  -0.83964  -0.83949  -0.78414  -0.78396
  Beta  occ. eigenvalues --   -0.78380  -0.74355  -0.74314  -0.74230  -0.72477
  Beta  occ. eigenvalues --   -0.72473  -0.72467
  Beta virt. eigenvalues --   -0.28670  -0.27605  -0.27598  -0.24781  -0.24765
  Beta virt. eigenvalues --   -0.24728  -0.20630  -0.20627  -0.19635  -0.19615
  Beta virt. eigenvalues --   -0.19594  -0.17220  -0.17202  -0.17192  -0.15076
  Beta virt. eigenvalues --   -0.12494  -0.12455  -0.12410  -0.09060  -0.09056
  Beta virt. eigenvalues --   -0.08486  -0.07207  -0.07122  -0.07073  -0.07055
  Beta virt. eigenvalues --   -0.06392  -0.06271  -0.06201  -0.04126  -0.04107
  Beta virt. eigenvalues --   -0.04063  -0.02875  -0.02860  -0.02834  -0.02806
  Beta virt. eigenvalues --   -0.02750  -0.02691  -0.02457  -0.02456   0.01497
  Beta virt. eigenvalues --    0.01732   0.01852   0.02988   0.03413   0.03432
  Beta virt. eigenvalues --    0.03458   0.05689   0.05711   0.05768   0.09370
  Beta virt. eigenvalues --    0.14991   0.15845   0.15850   0.17960   0.18059
  Beta virt. eigenvalues --    0.18119   0.19301   0.19561   0.19854   0.20189
  Beta virt. eigenvalues --    0.20209   0.20308   0.29243   0.29260   0.31144
  Beta virt. eigenvalues --    0.31174   0.31276   0.34258   0.34470   0.34755
  Beta virt. eigenvalues --    0.35625   0.35666   0.35691   0.35844   0.38155
  Beta virt. eigenvalues --    0.40638   0.40660   0.43487   0.43614   0.43902
  Beta virt. eigenvalues --    0.48093   0.48117   0.53005   0.53444   0.53764
  Beta virt. eigenvalues --    0.62042   0.62147   0.62189   0.64643   0.64682
  Beta virt. eigenvalues --    0.64955   0.65301   0.65503   0.65595   0.68388
  Beta virt. eigenvalues --    0.68526   0.68635   0.73562   0.73649   0.73782
  Beta virt. eigenvalues --    0.75108   0.75456   0.75802   0.87649   0.87853
  Beta virt. eigenvalues --    0.87889   0.88012   0.90432   0.90652   0.90841
  Beta virt. eigenvalues --    0.95591   0.95686   0.98654   0.99423   1.00145
  Beta virt. eigenvalues --    1.00282   1.00722   1.01474   1.08928   1.08948
  Beta virt. eigenvalues --    1.17025   1.17062   1.17150   1.17184   1.17245
  Beta virt. eigenvalues --    1.17253   1.19996   1.20134   1.20148   1.24371
  Beta virt. eigenvalues --    1.36306   1.36574   1.36790   1.38339   1.38472
  Beta virt. eigenvalues --    1.41956   1.44194   1.44449   1.44485   1.45010
  Beta virt. eigenvalues --    1.45346   1.45483   1.45784   1.50351   1.50410
  Beta virt. eigenvalues --    1.55188   1.55336   1.55661   1.60296   1.60387
  Beta virt. eigenvalues --    1.62504   1.62897   1.63374   1.67905   1.68142
  Beta virt. eigenvalues --    1.68320   1.71107   1.82140   1.84192   1.84537
  Beta virt. eigenvalues --    1.84654   1.95616   1.95660   1.95708   1.96003
  Beta virt. eigenvalues --    1.96102   1.99552   1.99774   1.99998   2.07210
  Beta virt. eigenvalues --    2.09016   2.09313   2.09747   2.16342   2.16631
  Beta virt. eigenvalues --    2.16765   2.27578   2.28402   2.28512   2.35546
  Beta virt. eigenvalues --    2.35638   2.35812   2.55000   2.55057   2.58005
  Beta virt. eigenvalues --    2.58085   2.58157   2.60121   2.60278   2.60541
  Beta virt. eigenvalues --    2.72725   2.72869   2.73663   3.39806   3.41951
  Beta virt. eigenvalues --    3.41992   3.42951   3.43679   3.44175   3.52215
  Beta virt. eigenvalues --    3.52293   3.52326   3.53174   3.53329   3.53389
  Beta virt. eigenvalues --    3.58421   3.58600   3.58663   3.59667   3.59684
  Beta virt. eigenvalues --    3.59699   3.72031   3.82653   3.82827   3.82869
  Beta virt. eigenvalues --    3.85454   3.85575   3.85589   3.86467   3.86664
  Beta virt. eigenvalues --    3.86808   3.86845   3.86943   3.96199   3.96281
  Beta virt. eigenvalues --    3.96404   3.96570   4.03795   4.03837   4.19768
  Beta virt. eigenvalues --    4.91532   4.91713   4.91881   4.92922   4.93044
  Beta virt. eigenvalues --    4.93259   5.46427   5.47015   5.47162   5.47409
  Beta virt. eigenvalues --    5.55320   5.55340   5.93234   5.93338   5.93558
  Beta virt. eigenvalues --    5.95736   5.95756   5.95911   6.49446   6.49466
  Beta virt. eigenvalues --    6.49504   6.53050   6.53936   6.53980   6.54565
  Beta virt. eigenvalues --    6.54626   6.54796   6.55501   6.55849   6.63698
  Beta virt. eigenvalues --    6.63832   6.63982   6.69848   6.70095   6.70195
  Beta virt. eigenvalues --    6.73025   6.73243   6.73607   6.82830   6.93721
  Beta virt. eigenvalues --    6.93862   6.93938   6.96988   6.99379   7.00268
  Beta virt. eigenvalues --    7.00294   7.06660   7.06702   7.06761   7.14829
  Beta virt. eigenvalues --    7.14935   7.14943   7.18211   7.18357   7.18494
  Beta virt. eigenvalues --    7.43299   7.43402   7.51345   7.51532   7.51940
  Beta virt. eigenvalues --    8.87658   8.87999   8.88623  30.29343  36.43230
  Beta virt. eigenvalues --   36.43550  36.44079  49.77041  49.77156  49.77345
  Beta virt. eigenvalues --   49.78385  49.78391  49.79262 162.57512 845.05096
          Condensed to atoms (all electrons):
               1          2          3          4          5          6
     1  Ni  27.590651   0.123995  -0.038439  -0.038811   0.123775  -0.037914
     2  O    0.123995   7.878751   0.277194   0.277219  -0.050838   0.007419
     3  H   -0.038439   0.277194   0.393847  -0.001129   0.002884   0.000246
     4  H   -0.038811   0.277219  -0.001129   0.393569   0.002820   0.000266
     5  O    0.123775  -0.050838   0.002884   0.002820   7.878605   0.277477
     6  H   -0.037914   0.007419   0.000246   0.000266   0.277477   0.393775
     7  H   -0.039354   0.000915   0.000560   0.000560   0.277163  -0.001233
     8  O    0.123673  -0.052602   0.000878   0.007927  -0.052186   0.002958
     9  H   -0.038571   0.003050   0.000574   0.000276   0.000869   0.000566
    10  H   -0.038345   0.002975   0.000554   0.000265   0.007848   0.000258
    11  O    0.123995   0.011858   0.000140   0.000143  -0.054168   0.000848
    12  H   -0.038439   0.000140   0.000126  -0.000012   0.003136   0.000570
    13  H   -0.038811   0.000143  -0.000012   0.000128   0.003200   0.000581
    14  O    0.123775  -0.054168   0.003136   0.003200   0.011909   0.000123
    15  H   -0.037914   0.000848   0.000570   0.000581   0.000123   0.000128
    16  H   -0.039354   0.008320   0.000267   0.000272   0.000159  -0.000013
    17  O    0.123673  -0.051805   0.007754   0.000880  -0.052460   0.002943
    18  H   -0.038571   0.002867   0.000278   0.000562   0.007861   0.000272
    19  H   -0.038345   0.002988   0.000248   0.000573   0.000879   0.000552
               7          8          9         10         11         12
     1  Ni  -0.039354   0.123673  -0.038571  -0.038345   0.123995  -0.038439
     2  O    0.000915  -0.052602   0.003050   0.002975   0.011858   0.000140
     3  H    0.000560   0.000878   0.000574   0.000554   0.000140   0.000126
     4  H    0.000560   0.007927   0.000276   0.000265   0.000143  -0.000012
     5  O    0.277163  -0.052186   0.000869   0.007848  -0.054168   0.003136
     6  H   -0.001233   0.002958   0.000566   0.000258   0.000848   0.000570
     7  H    0.393663   0.002971   0.000578   0.000256   0.008320   0.000267
     8  O    0.002971   7.878596   0.277459   0.277231  -0.051805   0.007754
     9  H    0.000578   0.277459   0.393484  -0.001297   0.002867   0.000278
    10  H    0.000256   0.277231  -0.001297   0.393864   0.002988   0.000248
    11  O    0.008320  -0.051805   0.002867   0.002988   7.878751   0.277194
    12  H    0.000267   0.007754   0.000278   0.000248   0.277194   0.393847
    13  H    0.000272   0.000880   0.000562   0.000573   0.277219  -0.001129
    14  O    0.000159  -0.052460   0.007861   0.000879  -0.050838   0.002884
    15  H   -0.000013   0.002943   0.000272   0.000552   0.007419   0.000246
    16  H    0.000127   0.003080   0.000259   0.000573   0.000915   0.000560
    17  O    0.003080   0.011836   0.000139   0.000140  -0.052602   0.000878
    18  H    0.000259   0.000139   0.000128  -0.000013   0.003050   0.000574
    19  H    0.000573   0.000140  -0.000013   0.000126   0.002975   0.000554
              13         14         15         16         17         18
     1  Ni  -0.038811   0.123775  -0.037914  -0.039354   0.123673  -0.038571
     2  O    0.000143  -0.054168   0.000848   0.008320  -0.051805   0.002867
     3  H   -0.000012   0.003136   0.000570   0.000267   0.007754   0.000278
     4  H    0.000128   0.003200   0.000581   0.000272   0.000880   0.000562
     5  O    0.003200   0.011909   0.000123   0.000159  -0.052460   0.007861
     6  H    0.000581   0.000123   0.000128  -0.000013   0.002943   0.000272
     7  H    0.000272   0.000159  -0.000013   0.000127   0.003080   0.000259
     8  O    0.000880  -0.052460   0.002943   0.003080   0.011836   0.000139
     9  H    0.000562   0.007861   0.000272   0.000259   0.000139   0.000128
    10  H    0.000573   0.000879   0.000552   0.000573   0.000140  -0.000013
    11  O    0.277219  -0.050838   0.007419   0.000915  -0.052602   0.003050
    12  H   -0.001129   0.002884   0.000246   0.000560   0.000878   0.000574
    13  H    0.393569   0.002820   0.000266   0.000560   0.007927   0.000276
    14  O    0.002820   7.878605   0.277477   0.277163  -0.052186   0.000869
    15  H    0.000266   0.277477   0.393775  -0.001233   0.002958   0.000566
    16  H    0.000560   0.277163  -0.001233   0.393663   0.002971   0.000578
    17  O    0.007927  -0.052186   0.002958   0.002971   7.878596   0.277459
    18  H    0.000276   0.000869   0.000566   0.000578   0.277459   0.393484
    19  H    0.000265   0.007848   0.000258   0.000256   0.277231  -0.001297
              19
     1  Ni  -0.038345
     2  O    0.002988
     3  H    0.000248
     4  H    0.000573
     5  O    0.000879
     6  H    0.000552
     7  H    0.000573
     8  O    0.000140
     9  H   -0.000013
    10  H    0.000126
    11  O    0.002975
    12  H    0.000554
    13  H    0.000265
    14  O    0.007848
    15  H    0.000258
    16  H    0.000256
    17  O    0.277231
    18  H   -0.001297
    19  H    0.393864
          Atomic-Atomic Spin Densities.
               1          2          3          4          5          6
     1  Ni   1.967659  -0.030744   0.003588   0.003609  -0.030694   0.003540
     2  O   -0.030744   0.077121  -0.004302  -0.004335  -0.005172   0.000214
     3  H    0.003588  -0.004302   0.002585   0.001071   0.000390  -0.000085
     4  H    0.003609  -0.004335   0.001071   0.002589   0.000383  -0.000085
     5  O   -0.030694  -0.005172   0.000390   0.000383   0.077148  -0.004228
     6  H    0.003540   0.000214  -0.000085  -0.000085  -0.004228   0.002615
     7  H    0.003638   0.000092  -0.000023  -0.000023  -0.004430   0.001076
     8  O   -0.030783  -0.005184   0.000085   0.000246  -0.005182   0.000395
     9  H    0.003597   0.000387  -0.000024  -0.000089   0.000088  -0.000023
    10  H    0.003593   0.000394  -0.000023  -0.000091   0.000232  -0.000089
    11  O   -0.030744   0.003061  -0.000116  -0.000116  -0.005293   0.000084
    12  H    0.003588  -0.000116  -0.000004   0.000005   0.000398  -0.000023
    13  H    0.003609  -0.000116   0.000005  -0.000004   0.000393  -0.000024
    14  O   -0.030694  -0.005293   0.000398   0.000393   0.003071  -0.000114
    15  H    0.003540   0.000084  -0.000023  -0.000024  -0.000114  -0.000004
    16  H    0.003638   0.000270  -0.000094  -0.000093  -0.000118   0.000005
    17  O   -0.030783  -0.005150   0.000231   0.000089  -0.005215   0.000396
    18  H    0.003597   0.000385  -0.000089  -0.000023   0.000242  -0.000090
    19  H    0.003593   0.000391  -0.000088  -0.000024   0.000084  -0.000023
               7          8          9         10         11         12
     1  Ni   0.003638  -0.030783   0.003597   0.003593  -0.030744   0.003588
     2  O    0.000092  -0.005184   0.000387   0.000394   0.003061  -0.000116
     3  H   -0.000023   0.000085  -0.000024  -0.000023  -0.000116  -0.000004
     4  H   -0.000023   0.000246  -0.000089  -0.000091  -0.000116   0.000005
     5  O   -0.004430  -0.005182   0.000088   0.000232  -0.005293   0.000398
     6  H    0.001076   0.000395  -0.000023  -0.000089   0.000084  -0.000023
     7  H    0.002589   0.000388  -0.000023  -0.000089   0.000270  -0.000094
     8  O    0.000388   0.077039  -0.004314  -0.004303  -0.005150   0.000231
     9  H   -0.000023  -0.004314   0.002604   0.001071   0.000385  -0.000089
    10  H   -0.000089  -0.004303   0.001071   0.002582   0.000391  -0.000088
    11  O    0.000270  -0.005150   0.000385   0.000391   0.077121  -0.004302
    12  H   -0.000094   0.000231  -0.000089  -0.000088  -0.004302   0.002585
    13  H   -0.000093   0.000089  -0.000023  -0.000024  -0.004335   0.001071
    14  O   -0.000118  -0.005215   0.000242   0.000084  -0.005172   0.000390
    15  H    0.000005   0.000396  -0.000090  -0.000023   0.000214  -0.000085
    16  H   -0.000004   0.000390  -0.000089  -0.000023   0.000092  -0.000023
    17  O    0.000390   0.003048  -0.000114  -0.000115  -0.005184   0.000085
    18  H   -0.000089  -0.000114  -0.000004   0.000005   0.000387  -0.000024
    19  H   -0.000023  -0.000115   0.000005  -0.000004   0.000394  -0.000023
              13         14         15         16         17         18
     1  Ni   0.003609  -0.030694   0.003540   0.003638  -0.030783   0.003597
     2  O   -0.000116  -0.005293   0.000084   0.000270  -0.005150   0.000385
     3  H    0.000005   0.000398  -0.000023  -0.000094   0.000231  -0.000089
     4  H   -0.000004   0.000393  -0.000024  -0.000093   0.000089  -0.000023
     5  O    0.000393   0.003071  -0.000114  -0.000118  -0.005215   0.000242
     6  H   -0.000024  -0.000114  -0.000004   0.000005   0.000396  -0.000090
     7  H   -0.000093  -0.000118   0.000005  -0.000004   0.000390  -0.000089
     8  O    0.000089  -0.005215   0.000396   0.000390   0.003048  -0.000114
     9  H   -0.000023   0.000242  -0.000090  -0.000089  -0.000114  -0.000004
    10  H   -0.000024   0.000084  -0.000023  -0.000023  -0.000115   0.000005
    11  O   -0.004335  -0.005172   0.000214   0.000092  -0.005184   0.000387
    12  H    0.001071   0.000390  -0.000085  -0.000023   0.000085  -0.000024
    13  H    0.002589   0.000383  -0.000085  -0.000023   0.000246  -0.000089
    14  O    0.000383   0.077148  -0.004228  -0.004430  -0.005182   0.000088
    15  H   -0.000085  -0.004228   0.002615   0.001076   0.000395  -0.000023
    16  H   -0.000023  -0.004430   0.001076   0.002589   0.000388  -0.000023
    17  O    0.000246  -0.005182   0.000395   0.000388   0.077039  -0.004314
    18  H   -0.000089   0.000088  -0.000023  -0.000023  -0.004314   0.002604
    19  H   -0.000091   0.000232  -0.000089  -0.000089  -0.004303   0.001071
              19
     1  Ni   0.003593
     2  O    0.000391
     3  H   -0.000088
     4  H   -0.000024
     5  O    0.000084
     6  H   -0.000023
     7  H   -0.000023
     8  O   -0.000115
     9  H    0.000005
    10  H   -0.000004
    11  O    0.000394
    12  H   -0.000023
    13  H   -0.000091
    14  O    0.000232
    15  H   -0.000089
    16  H   -0.000089
    17  O   -0.004303
    18  H    0.001071
    19  H    0.002582
 Mulliken charges and spin densities:
               1          2
     1  Ni   0.129330   1.826347
     2  O   -0.389269   0.021986
     3  H    0.350324   0.003483
     4  H    0.350711   0.003477
     5  O   -0.389056   0.021984
     6  H    0.350178   0.003535
     7  H    0.350875   0.003437
     8  O   -0.389414   0.021949
     9  H    0.350660   0.003495
    10  H    0.350326   0.003480
    11  O   -0.389269   0.021986
    12  H    0.350324   0.003483
    13  H    0.350711   0.003477
    14  O   -0.389056   0.021984
    15  H    0.350178   0.003535
    16  H    0.350875   0.003437
    17  O   -0.389414   0.021949
    18  H    0.350660   0.003495
    19  H    0.350326   0.003480
 Sum of Mulliken charges =   2.00000   2.00000
 Mulliken charges and spin densities with hydrogens summed into heavy atoms:
               1          2
     1  Ni   0.129330   1.826347
     2  O    0.311766   0.028947
     5  O    0.311997   0.028956
     8  O    0.311572   0.028924
    11  O    0.311766   0.028947
    14  O    0.311997   0.028956
    17  O    0.311572   0.028924
 Electronic spatial extent (au):  <R**2>=           1097.4961
 Charge=              2.0000 electrons
 Dipole moment (field-independent basis, Debye):
    X=              0.0000    Y=              0.0000    Z=              0.0000  Tot=              0.0000
 Quadrupole moment (field-independent basis, Debye-Ang):
   XX=            -15.3682   YY=            -15.3647   ZZ=            -15.3666
   XY=              0.0992   XZ=             -0.1521   YZ=              0.0813
 Traceless Quadrupole moment (field-independent basis, Debye-Ang):
   XX=             -0.0017   YY=              0.0018   ZZ=             -0.0001
   XY=              0.0992   XZ=             -0.1521   YZ=              0.0813
 Octapole moment (field-independent basis, Debye-Ang**2):
  XXX=              0.0000  YYY=              0.0000  ZZZ=              0.0000  XYY=              0.0000
  XXY=              0.0000  XXZ=              0.0000  XZZ=              0.0000  YZZ=              0.0000
  YYZ=              0.0000  XYZ=              0.0000
 Hexadecapole moment (field-independent basis, Debye-Ang**3):
 XXXX=           -111.6290 YYYY=           -111.6668 ZZZZ=           -111.4623 XXXY=             -0.6493
 XXXZ=             -4.0545 YYYX=              2.3127 YYYZ=              2.6873 ZZZX=             -0.7897
 ZZZY=             -1.5907 XXYY=            -99.0745 XXZZ=            -98.9838 YYZZ=            -98.9352
 XXYZ=             -0.1241 YYXZ=             -0.7037 ZZXY=              0.0944
 N-N= 7.033113546569D+02 E-N=-6.062932174021D+03  KE= 1.963383273012D+03
 Symmetry AG   KE= 1.230461991986D+03
 Symmetry AU   KE= 7.329212810261D+02
                          Isotropic Fermi Contact Couplings
        Atom                 a.u.       MegaHertz       Gauss      10(-4) cm-1
     1  Ni(61)            -1.13366     226.80494      80.92964      75.65398
     2  O(17)              0.09640     -29.21924     -10.42615      -9.74649
     3  H(1)               0.00080       1.78860       0.63822       0.59661
     4  H(1)               0.00079       1.76849       0.63104       0.58991
     5  O(17)              0.09649     -29.24654     -10.43589      -9.75560
     6  H(1)               0.00085       1.89310       0.67550       0.63147
     7  H(1)               0.00075       1.68345       0.60070       0.56154
     8  O(17)              0.09648     -29.24409     -10.43502      -9.75478
     9  H(1)               0.00080       1.79786       0.64152       0.59970
    10  H(1)               0.00079       1.77595       0.63370       0.59239
    11  O(17)              0.09640     -29.21924     -10.42615      -9.74649
    12  H(1)               0.00080       1.78860       0.63822       0.59661
    13  H(1)               0.00079       1.76849       0.63104       0.58991
    14  O(17)              0.09649     -29.24654     -10.43589      -9.75560
    15  H(1)               0.00085       1.89310       0.67550       0.63147
    16  H(1)               0.00075       1.68345       0.60070       0.56154
    17  O(17)              0.09648     -29.24409     -10.43502      -9.75478
    18  H(1)               0.00080       1.79786       0.64152       0.59970
    19  H(1)               0.00079       1.77595       0.63370       0.59239
 --------------------------------------------------------
       Center         ----  Spin Dipole Couplings  ----
                      3XX-RR        3YY-RR        3ZZ-RR
 --------------------------------------------------------
     1   Atom        0.000293     -0.000665      0.000372
     2   Atom        0.157964     -0.080563     -0.077401
     3   Atom        0.023910     -0.007232     -0.016678
     4   Atom        0.023601     -0.006910     -0.016690
     5   Atom       -0.080460     -0.077367      0.157827
     6   Atom       -0.007348     -0.016583      0.023931
     7   Atom       -0.006788     -0.016795      0.023583
     8   Atom       -0.077398      0.157862     -0.080464
     9   Atom       -0.016668      0.024088     -0.007420
    10   Atom       -0.016681      0.023365     -0.006684
    11   Atom        0.157964     -0.080563     -0.077401
    12   Atom        0.023910     -0.007232     -0.016678
    13   Atom        0.023601     -0.006910     -0.016690
    14   Atom       -0.080460     -0.077367      0.157827
    15   Atom       -0.007348     -0.016583      0.023931
    16   Atom       -0.006788     -0.016795      0.023583
    17   Atom       -0.077398      0.157862     -0.080464
    18   Atom       -0.016668      0.024088     -0.007420
    19   Atom       -0.016681      0.023365     -0.006684
 --------------------------------------------------------
                        XY            XZ            YZ
 --------------------------------------------------------
     1   Atom       -0.003410      0.013451     -0.001195
     2   Atom       -0.001676      0.003380     -0.000049
     3   Atom        0.012879     -0.000178     -0.000174
     4   Atom       -0.013287     -0.000409      0.000349
     5   Atom       -0.000052      0.003701     -0.004340
     6   Atom        0.000041     -0.012635     -0.000413
     7   Atom       -0.000201      0.013540     -0.000612
     8   Atom       -0.000255     -0.000008      0.003433
     9   Atom        0.000221     -0.000102     -0.012622
    10   Atom        0.000339      0.000207      0.013512
    11   Atom       -0.001676      0.003380     -0.000049
    12   Atom        0.012879     -0.000178     -0.000174
    13   Atom       -0.013287     -0.000409      0.000349
    14   Atom       -0.000052      0.003701     -0.004340
    15   Atom        0.000041     -0.012635     -0.000413
    16   Atom       -0.000201      0.013540     -0.000612
    17   Atom       -0.000255     -0.000008      0.003433
    18   Atom        0.000221     -0.000102     -0.012622
    19   Atom        0.000339      0.000207      0.013512
 --------------------------------------------------------


 ---------------------------------------------------------------------------------
              Anisotropic Spin Dipole Couplings in Principal Axis System
 ---------------------------------------------------------------------------------

       Atom             a.u.   MegaHertz   Gauss  10(-4) cm-1        Axes

              Baa    -0.0133     0.636     0.227     0.212  0.7131  0.1270 -0.6895
     1 Ni(61) Bbb    -0.0012     0.056     0.020     0.019  0.0587  0.9692  0.2393
              Bcc     0.0145    -0.692    -0.247    -0.231  0.6986 -0.2111  0.6837
 
              Baa    -0.0806     5.830     2.080     1.945  0.0069  0.9999  0.0082
     2 O(17)  Bbb    -0.0774     5.604     2.000     1.869 -0.0144 -0.0081  0.9999
              Bcc     0.1580   -11.435    -4.080    -3.814  0.9999 -0.0070  0.0144
 
              Baa    -0.0167    -8.900    -3.176    -2.969 -0.0025  0.0218  0.9998
     3 H(1)   Bbb    -0.0119    -6.331    -2.259    -2.112 -0.3387  0.9406 -0.0214
              Bcc     0.0285    15.231     5.435     5.081  0.9409  0.3387 -0.0050
 
              Baa    -0.0167    -8.912    -3.180    -2.973 -0.0029 -0.0396  0.9992
     4 H(1)   Bbb    -0.0119    -6.338    -2.261    -2.114  0.3508  0.9357  0.0381
              Bcc     0.0286    15.249     5.441     5.087  0.9364 -0.3507 -0.0112
 
              Baa    -0.0805     5.826     2.079     1.943  0.9999 -0.0051 -0.0156
     5 O(17)  Bbb    -0.0774     5.604     2.000     1.869  0.0054  0.9998  0.0184
              Bcc     0.1580   -11.430    -4.079    -3.813  0.0155 -0.0184  0.9997
 
              Baa    -0.0166    -8.851    -3.158    -2.952  0.0166  0.9997  0.0153
     6 H(1)   Bbb    -0.0118    -6.303    -2.249    -2.102  0.9427 -0.0207  0.3330
              Bcc     0.0284    15.153     5.407     5.055 -0.3332 -0.0090  0.9428
 
              Baa    -0.0168    -8.966    -3.199    -2.991 -0.0008  0.9999  0.0154
     7 H(1)   Bbb    -0.0119    -6.375    -2.275    -2.126  0.9345  0.0062 -0.3560
              Bcc     0.0288    15.341     5.474     5.117  0.3561 -0.0141  0.9344
 
              Baa    -0.0805     5.826     2.079     1.943  0.0013 -0.0144  0.9999
     8 O(17)  Bbb    -0.0774     5.600     1.998     1.868  1.0000  0.0011 -0.0013
              Bcc     0.1579   -11.426    -4.077    -3.811 -0.0011  0.9999  0.0144
 
              Baa    -0.0167    -8.894    -3.174    -2.967  1.0000 -0.0035  0.0062
     9 H(1)   Bbb    -0.0119    -6.324    -2.257    -2.109 -0.0047  0.3314  0.9435
              Bcc     0.0285    15.218     5.430     5.076  0.0054  0.9435 -0.3314
 
              Baa    -0.0167    -8.903    -3.177    -2.970  0.9999 -0.0027 -0.0170
    10 H(1)   Bbb    -0.0119    -6.331    -2.259    -2.112  0.0149 -0.3582  0.9335
              Bcc     0.0286    15.233     5.436     5.081  0.0086  0.9336  0.3581
 
              Baa    -0.0806     5.830     2.080     1.945  0.0069  0.9999  0.0082
    11 O(17)  Bbb    -0.0774     5.604     2.000     1.869 -0.0144 -0.0081  0.9999
              Bcc     0.1580   -11.435    -4.080    -3.814  0.9999 -0.0070  0.0144
 
              Baa    -0.0167    -8.900    -3.176    -2.969 -0.0025  0.0218  0.9998
    12 H(1)   Bbb    -0.0119    -6.331    -2.259    -2.112 -0.3387  0.9406 -0.0214
              Bcc     0.0285    15.231     5.435     5.081  0.9409  0.3387 -0.0050
 
              Baa    -0.0167    -8.912    -3.180    -2.973 -0.0029 -0.0396  0.9992
    13 H(1)   Bbb    -0.0119    -6.338    -2.261    -2.114  0.3508  0.9357  0.0381
              Bcc     0.0286    15.249     5.441     5.087  0.9364 -0.3507 -0.0112
 
              Baa    -0.0805     5.826     2.079     1.943  0.9999 -0.0051 -0.0156
    14 O(17)  Bbb    -0.0774     5.604     2.000     1.869  0.0054  0.9998  0.0184
              Bcc     0.1580   -11.430    -4.079    -3.813  0.0155 -0.0184  0.9997
 
              Baa    -0.0166    -8.851    -3.158    -2.952  0.0166  0.9997  0.0153
    15 H(1)   Bbb    -0.0118    -6.303    -2.249    -2.102  0.9427 -0.0207  0.3330
              Bcc     0.0284    15.153     5.407     5.055 -0.3332 -0.0090  0.9428
 
              Baa    -0.0168    -8.966    -3.199    -2.991 -0.0008  0.9999  0.0154
    16 H(1)   Bbb    -0.0119    -6.375    -2.275    -2.126  0.9345  0.0062 -0.3560
              Bcc     0.0288    15.341     5.474     5.117  0.3561 -0.0141  0.9344
 
              Baa    -0.0805     5.826     2.079     1.943  0.0013 -0.0144  0.9999
    17 O(17)  Bbb    -0.0774     5.600     1.998     1.868  1.0000  0.0011 -0.0013
              Bcc     0.1579   -11.426    -4.077    -3.811 -0.0011  0.9999  0.0144
 
              Baa    -0.0167    -8.894    -3.174    -2.967  1.0000 -0.0035  0.0062
    18 H(1)   Bbb    -0.0119    -6.324    -2.257    -2.109 -0.0047  0.3314  0.9435
              Bcc     0.0285    15.218     5.430     5.076  0.0054  0.9435 -0.3314
 
              Baa    -0.0167    -8.903    -3.177    -2.970  0.9999 -0.0027 -0.0170
    19 H(1)   Bbb    -0.0119    -6.331    -2.259    -2.112  0.0149 -0.3582  0.9335
              Bcc     0.0286    15.233     5.436     5.081  0.0086  0.9336  0.3581
 

 ---------------------------------------------------------------------------------

 Calling FoFJK, ICntrl=      2127 FMM=F ISym2X=1 I1Cent= 0 IOpClX= 1 NMat=1 NMatS=1 NMatT=0.
 ***** Axes restored to original set *****
 -------------------------------------------------------------------
 Center     Atomic                   Forces (Hartrees/Bohr)
 Number     Number              X              Y              Z
 -------------------------------------------------------------------
      1       28           0.000000000    0.000000000    0.000000000
      2        8          -0.000056044   -0.000047104    0.000084754
      3        1          -0.000014897   -0.000154618   -0.000011377
      4        1           0.000043024    0.000151159    0.000025522
      5        8          -0.000141699    0.000141835    0.000060350
      6        1          -0.000098675   -0.000020210   -0.000044028
      7        1           0.000138203   -0.000041405    0.000077526
      8        8           0.000024977   -0.000102940   -0.000067480
      9        1          -0.000042432   -0.000034736   -0.000086044
     10        1           0.000016268    0.000075702    0.000107915
     11        8           0.000056044    0.000047104   -0.000084754
     12        1           0.000014897    0.000154618    0.000011377
     13        1          -0.000043024   -0.000151159   -0.000025522
     14        8           0.000141699   -0.000141835   -0.000060350
     15        1           0.000098675    0.000020210    0.000044028
     16        1          -0.000138203    0.000041405   -0.000077526
     17        8          -0.000024977    0.000102940    0.000067480
     18        1           0.000042432    0.000034736    0.000086044
     19        1          -0.000016268   -0.000075702   -0.000107915
 -------------------------------------------------------------------
 Cartesian Forces:  Max     0.000154618 RMS     0.000081375

 GradGradGradGradGradGradGradGradGradGradGradGradGradGradGradGradGradGrad
 Berny optimization.
 FormGI is forming the generalized inverse of G from B-inverse, IUseBI=4.
 Internal  Forces:  Max     0.000159346 RMS     0.000059538
 Search for a local minimum.
 Step number   1 out of a maximum of  114
 All quantities printed in internal units (Hartrees-Bohrs-Radians)
 Mixed Optimization -- En-DIIS/RFO-DIIS
 Second derivative matrix not updated -- first step.
 ITU=  0
     Eigenvalues ---    0.00659   0.00664   0.00669   0.00798   0.00802
     Eigenvalues ---    0.00807   0.00810   0.00812   0.00815   0.01088
     Eigenvalues ---    0.01099   0.01107   0.06091   0.06094   0.06096
     Eigenvalues ---    0.07071   0.07075   0.07078   0.11786   0.11786
     Eigenvalues ---    0.11809   0.11809   0.11827   0.11827   0.12912
     Eigenvalues ---    0.13037   0.13198   0.16000   0.16000   0.16000
     Eigenvalues ---    0.16000   0.16000   0.16000   0.16000   0.16000
     Eigenvalues ---    0.16000   0.16000   0.16000   0.16000   0.54669
     Eigenvalues ---    0.54669   0.54670   0.54670   0.54674   0.54674
     Eigenvalues ---    0.54683   0.54683   0.54684   0.54684   0.54686
     Eigenvalues ---    0.54686
 RFO step:  Lambda=-2.77747049D-06 EMin= 6.58760663D-03
 Linear search not attempted -- first point.
 Iteration  1 RMS(Cart)=  0.00101263 RMS(Int)=  0.00000060
 Iteration  2 RMS(Cart)=  0.00000060 RMS(Int)=  0.00000024
 ClnCor:  largest displacement from symmetrization is 2.81D-08 for atom    18.
 Variable       Old X    -DE/DX   Delta X   Delta X   Delta X     New X
                                 (Linear)    (Quad)   (Total)
    R1        3.92128   0.00003   0.00000   0.00023   0.00023   3.92151
    R2        3.92002   0.00009   0.00000   0.00078   0.00078   3.92079
    R3        3.92287  -0.00006   0.00000  -0.00053  -0.00053   3.92233
    R4        3.92128   0.00003   0.00000   0.00023   0.00023   3.92151
    R5        3.92002   0.00009   0.00000   0.00078   0.00078   3.92079
    R6        3.92287  -0.00006   0.00000  -0.00053  -0.00053   3.92233
    R7        1.82112   0.00013   0.00000   0.00024   0.00024   1.82136
    R8        1.82126   0.00010   0.00000   0.00019   0.00019   1.82145
    R9        1.82115   0.00005   0.00000   0.00009   0.00009   1.82124
   R10        1.82123   0.00016   0.00000   0.00029   0.00029   1.82152
   R11        1.82127   0.00004   0.00000   0.00007   0.00007   1.82133
   R12        1.82114   0.00014   0.00000   0.00026   0.00026   1.82140
   R13        1.82112   0.00013   0.00000   0.00024   0.00024   1.82136
   R14        1.82126   0.00010   0.00000   0.00019   0.00019   1.82145
   R15        1.82115   0.00005   0.00000   0.00009   0.00009   1.82124
   R16        1.82123   0.00016   0.00000   0.00029   0.00029   1.82152
   R17        1.82127   0.00004   0.00000   0.00007   0.00007   1.82133
   R18        1.82114   0.00014   0.00000   0.00026   0.00026   1.82140
    A1        1.58238  -0.00012   0.00000  -0.00092  -0.00092   1.58146
    A2        1.56793   0.00001   0.00000   0.00008   0.00008   1.56800
    A3        1.55921   0.00012   0.00000   0.00092   0.00092   1.56013
    A4        1.57367  -0.00001   0.00000  -0.00008  -0.00008   1.57359
    A5        1.57219   0.00001   0.00000   0.00005   0.00005   1.57224
    A6        1.55921   0.00012   0.00000   0.00092   0.00092   1.56013
    A7        1.56940  -0.00001   0.00000  -0.00005  -0.00005   1.56935
    A8        1.57367  -0.00001   0.00000  -0.00008  -0.00008   1.57359
    A9        1.56940  -0.00001   0.00000  -0.00005  -0.00005   1.56935
   A10        1.58238  -0.00012   0.00000  -0.00092  -0.00092   1.58146
   A11        1.56793   0.00001   0.00000   0.00008   0.00008   1.56800
   A12        1.57219   0.00001   0.00000   0.00005   0.00005   1.57224
   A13        2.20051  -0.00002   0.00000  -0.00010  -0.00010   2.20041
   A14        2.19799  -0.00011   0.00000  -0.00068  -0.00068   2.19730
   A15        1.88334   0.00012   0.00000   0.00076   0.00076   1.88410
   A16        2.21173  -0.00010   0.00000  -0.00063  -0.00063   2.21110
   A17        2.18733   0.00004   0.00000   0.00024   0.00024   2.18756
   A18        1.88401   0.00007   0.00000   0.00042   0.00042   1.88444
   A19        2.20031  -0.00007   0.00000  -0.00042  -0.00042   2.19989
   A20        2.19860   0.00002   0.00000   0.00012   0.00012   2.19872
   A21        1.88408   0.00005   0.00000   0.00031   0.00031   1.88438
   A22        2.20051  -0.00002   0.00000  -0.00010  -0.00010   2.20041
   A23        2.19799  -0.00011   0.00000  -0.00068  -0.00068   2.19730
   A24        1.88334   0.00012   0.00000   0.00076   0.00076   1.88410
   A25        2.21173  -0.00010   0.00000  -0.00063  -0.00063   2.21110
   A26        2.18733   0.00004   0.00000   0.00024   0.00024   2.18756
   A27        1.88401   0.00007   0.00000   0.00042   0.00042   1.88444
   A28        2.20031  -0.00007   0.00000  -0.00042  -0.00042   2.19989
   A29        2.19860   0.00002   0.00000   0.00012   0.00012   2.19872
   A30        1.88408   0.00005   0.00000   0.00031   0.00031   1.88438
   A31        3.14159   0.00000   0.00000   0.00000   0.00000   3.14159
   A32        3.14159   0.00000   0.00000   0.00000   0.00000   3.14159
   A33        3.14159   0.00000   0.00000   0.00000   0.00000   3.14159
   A34        3.14159   0.00000   0.00000   0.00000   0.00000   3.14159
   A35        3.14159   0.00000   0.00000   0.00000   0.00000   3.14159
   A36        3.14159   0.00000   0.00000   0.00000   0.00000   3.14159
    D1       -1.53300   0.00000   0.00000  -0.00048  -0.00048  -1.53348
    D2        1.54603  -0.00001   0.00000  -0.00097  -0.00097   1.54506
    D3       -3.10516  -0.00001   0.00000  -0.00053  -0.00053  -3.10569
    D4       -0.02612  -0.00001   0.00000  -0.00102  -0.00102  -0.02715
    D5        1.60859   0.00000   0.00000  -0.00048  -0.00048   1.60811
    D6       -1.59556  -0.00001   0.00000  -0.00097  -0.00097  -1.59653
    D7        0.03643  -0.00001   0.00000  -0.00053  -0.00053   0.03590
    D8        3.11547  -0.00001   0.00000  -0.00102  -0.00102   3.11445
    D9        3.14159   0.00000   0.00000   0.00000   0.00000   3.14159
   D10        0.06256   0.00000   0.00000   0.00049   0.00049   0.06304
   D11       -0.06256   0.00000   0.00000  -0.00049  -0.00049  -0.06304
   D12        3.14159   0.00000   0.00000   0.00000   0.00000   3.14159
   D13       -0.01090   0.00000   0.00000   0.00111   0.00111  -0.00979
   D14       -3.13398  -0.00002   0.00000  -0.00189  -0.00189  -3.13586
   D15        1.55704   0.00001   0.00000   0.00119   0.00119   1.55822
   D16       -1.56604  -0.00001   0.00000  -0.00181  -0.00181  -1.56785
   D17        3.13069   0.00000   0.00000   0.00111   0.00111   3.13180
   D18        0.00761  -0.00002   0.00000  -0.00189  -0.00189   0.00573
   D19       -1.58456   0.00001   0.00000   0.00119   0.00119  -1.58337
   D20        1.57556  -0.00001   0.00000  -0.00181  -0.00181   1.57374
   D21        3.14159   0.00000   0.00000   0.00000   0.00000   3.14159
   D22       -0.01852   0.00002   0.00000   0.00300   0.00300  -0.01552
   D23        0.01852  -0.00002   0.00000  -0.00300  -0.00300   0.01552
   D24       -3.14159   0.00000   0.00000   0.00000   0.00000  -3.14159
   D25       -1.57570  -0.00005   0.00000   0.00081   0.00081  -1.57489
   D26        1.59004  -0.00005   0.00000   0.00023   0.00023   1.59027
   D27        3.12510   0.00007   0.00000   0.00173   0.00173   3.12683
   D28        0.00767   0.00007   0.00000   0.00115   0.00115   0.00881
   D29        1.56589  -0.00005   0.00000   0.00081   0.00081   1.56670
   D30       -1.55155  -0.00005   0.00000   0.00023   0.00023  -1.55132
   D31       -0.01649   0.00007   0.00000   0.00173   0.00173  -0.01476
   D32       -3.13393   0.00007   0.00000   0.00115   0.00115  -3.13278
   D33        3.14159   0.00000   0.00000   0.00000   0.00000   3.14159
   D34       -0.02415   0.00000   0.00000   0.00058   0.00058  -0.02357
   D35        0.02415   0.00000   0.00000  -0.00058  -0.00058   0.02357
   D36        3.14159   0.00000   0.00000   0.00000   0.00000   3.14159
   D37       -1.60859   0.00000   0.00000   0.00048   0.00048  -1.60811
   D38        1.59556   0.00001   0.00000   0.00097   0.00097   1.59653
   D39       -0.03643   0.00001   0.00000   0.00053   0.00053  -0.03590
   D40       -3.11547   0.00001   0.00000   0.00102   0.00102  -3.11445
   D41        1.53300   0.00000   0.00000   0.00048   0.00048   1.53348
   D42       -1.54603   0.00001   0.00000   0.00097   0.00097  -1.54506
   D43        3.10516   0.00001   0.00000   0.00053   0.00053   3.10569
   D44        0.02612   0.00001   0.00000   0.00102   0.00102   0.02715
   D45       -3.13069   0.00000   0.00000  -0.00111  -0.00111  -3.13180
   D46       -0.00761   0.00002   0.00000   0.00189   0.00189  -0.00573
   D47        1.58456  -0.00001   0.00000  -0.00119  -0.00119   1.58337
   D48       -1.57556   0.00001   0.00000   0.00181   0.00181  -1.57374
   D49        0.01090   0.00000   0.00000  -0.00111  -0.00111   0.00979
   D50        3.13398   0.00002   0.00000   0.00189   0.00189   3.13586
   D51       -1.55704  -0.00001   0.00000  -0.00119  -0.00119  -1.55822
   D52        1.56604   0.00001   0.00000   0.00181   0.00181   1.56785
   D53       -1.56589   0.00005   0.00000  -0.00081  -0.00081  -1.56670
   D54        1.55155   0.00005   0.00000  -0.00023  -0.00023   1.55132
   D55        0.01649  -0.00007   0.00000  -0.00173  -0.00173   0.01476
   D56        3.13393  -0.00007   0.00000  -0.00115  -0.00115   3.13278
   D57        1.57570   0.00005   0.00000  -0.00081  -0.00081   1.57489
   D58       -1.59004   0.00005   0.00000  -0.00023  -0.00023  -1.59027
   D59       -3.12510  -0.00007   0.00000  -0.00173  -0.00173  -3.12683
   D60       -0.00767  -0.00007   0.00000  -0.00115  -0.00115  -0.00881
         Item               Value     Threshold  Converged?
 Maximum Force            0.000159     0.000450     YES
 RMS     Force            0.000060     0.000300     YES
 Maximum Displacement     0.003553     0.001800     NO 
 RMS     Displacement     0.001013     0.001200     YES
[...]
    10  H    0.000576   0.000894   0.000563   0.000573   0.000145  -0.000013
    11  O    0.277376  -0.051975   0.007785   0.000887  -0.052613   0.003066
    12  H   -0.001272   0.002898   0.000260   0.000559   0.000872   0.000565
    13  H    0.393397   0.002990   0.000253   0.000576   0.007918   0.000253
    14  O    0.002990   7.878772   0.277225   0.277355  -0.052930   0.000860
    15  H    0.000253   0.277225   0.393827  -0.001217   0.003107   0.000564
    16  H    0.000576   0.277355  -0.001217   0.393423   0.003034   0.000567
    17  O    0.007918  -0.052930   0.003107   0.003034   7.878782   0.277227
    18  H    0.000253   0.000860   0.000564   0.000567   0.277227   0.393883
    19  H    0.000283   0.008018   0.000257   0.000282   0.277363  -0.001251
              19
     1  Ni  -0.038886
     2  O    0.002992
     3  H    0.000256
     4  H    0.000576
     5  O    0.000894
     6  H    0.000563
     7  H    0.000573
     8  O    0.000145
     9  H   -0.000013
    10  H    0.000128
    11  O    0.002978
    12  H    0.000569
    13  H    0.000283
    14  O    0.008018
    15  H    0.000257
    16  H    0.000282
    17  O    0.277363
    18  H   -0.001251
    19  H    0.393400
          Atomic-Atomic Spin Densities.
               1          2          3          4          5          6
     1  Ni   1.967605  -0.030734   0.003586   0.003602  -0.030744   0.003585
     2  O   -0.030734   0.077085  -0.004299  -0.004334  -0.005176   0.000231
     3  H    0.003586  -0.004299   0.002594   0.001072   0.000390  -0.000089
     4  H    0.003602  -0.004334   0.001072   0.002594   0.000389  -0.000088
     5  O   -0.030744  -0.005176   0.000390   0.000389   0.077089  -0.004290
     6  H    0.003585   0.000231  -0.000089  -0.000088  -0.004290   0.002590
     7  H    0.003609   0.000089  -0.000023  -0.000024  -0.004339   0.001070
     8  O   -0.030729  -0.005214   0.000086   0.000245  -0.005225   0.000395
     9  H    0.003571   0.000396  -0.000023  -0.000090   0.000084  -0.000023
    10  H    0.003618   0.000388  -0.000023  -0.000090   0.000253  -0.000091
    11  O   -0.030734   0.003059  -0.000115  -0.000116  -0.005210   0.000085
    12  H    0.003586  -0.000115  -0.000004   0.000005   0.000395  -0.000024
    13  H    0.003602  -0.000116   0.000005  -0.000004   0.000389  -0.000023
    14  O   -0.030744  -0.005210   0.000395   0.000389   0.003058  -0.000115
    15  H    0.003585   0.000085  -0.000024  -0.000023  -0.000115  -0.000004
    16  H    0.003609   0.000247  -0.000090  -0.000090  -0.000116   0.000005
    17  O   -0.030729  -0.005189   0.000233   0.000088  -0.005168   0.000391
    18  H    0.003571   0.000393  -0.000089  -0.000023   0.000225  -0.000088
    19  H    0.003618   0.000387  -0.000088  -0.000024   0.000090  -0.000023
               7          8          9         10         11         12
     1  Ni   0.003609  -0.030729   0.003571   0.003618  -0.030734   0.003586
     2  O    0.000089  -0.005214   0.000396   0.000388   0.003059  -0.000115
     3  H   -0.000023   0.000086  -0.000023  -0.000023  -0.000115  -0.000004
     4  H   -0.000024   0.000245  -0.000090  -0.000090  -0.000116   0.000005
     5  O   -0.004339  -0.005225   0.000084   0.000253  -0.005210   0.000395
     6  H    0.001070   0.000395  -0.000023  -0.000091   0.000085  -0.000024
     7  H    0.002591   0.000390  -0.000023  -0.000091   0.000247  -0.000090
     8  O    0.000390   0.077093  -0.004271  -0.004365  -0.005189   0.000233
     9  H   -0.000023  -0.004271   0.002599   0.001072   0.000393  -0.000089
    10  H   -0.000091  -0.004365   0.001072   0.002593   0.000387  -0.000088
    11  O    0.000247  -0.005189   0.000393   0.000387   0.077085  -0.004299
    12  H   -0.000090   0.000233  -0.000089  -0.000088  -0.004299   0.002594
    13  H   -0.000090   0.000088  -0.000023  -0.000024  -0.004334   0.001072
    14  O   -0.000116  -0.005168   0.000225   0.000090  -0.005176   0.000390
    15  H    0.000005   0.000391  -0.000088  -0.000023   0.000231  -0.000089
    16  H   -0.000004   0.000386  -0.000087  -0.000023   0.000089  -0.000023
    17  O    0.000386   0.003061  -0.000115  -0.000117  -0.005214   0.000086
    18  H   -0.000087  -0.000115  -0.000004   0.000005   0.000396  -0.000023
    19  H   -0.000023  -0.000117   0.000005  -0.000004   0.000388  -0.000023
              13         14         15         16         17         18
     1  Ni   0.003602  -0.030744   0.003585   0.003609  -0.030729   0.003571
     2  O   -0.000116  -0.005210   0.000085   0.000247  -0.005189   0.000393
     3  H    0.000005   0.000395  -0.000024  -0.000090   0.000233  -0.000089
     4  H   -0.000004   0.000389  -0.000023  -0.000090   0.000088  -0.000023
     5  O    0.000389   0.003058  -0.000115  -0.000116  -0.005168   0.000225
     6  H   -0.000023  -0.000115  -0.000004   0.000005   0.000391  -0.000088
     7  H   -0.000090  -0.000116   0.000005  -0.000004   0.000386  -0.000087
     8  O    0.000088  -0.005168   0.000391   0.000386   0.003061  -0.000115
     9  H   -0.000023   0.000225  -0.000088  -0.000087  -0.000115  -0.000004
    10  H   -0.000024   0.000090  -0.000023  -0.000023  -0.000117   0.000005
    11  O   -0.004334  -0.005176   0.000231   0.000089  -0.005214   0.000396
    12  H    0.001072   0.000390  -0.000089  -0.000023   0.000086  -0.000023
    13  H    0.002594   0.000389  -0.000088  -0.000024   0.000245  -0.000090
    14  O    0.000389   0.077089  -0.004290  -0.004339  -0.005225   0.000084
    15  H   -0.000088  -0.004290   0.002590   0.001070   0.000395  -0.000023
    16  H   -0.000024  -0.004339   0.001070   0.002591   0.000390  -0.000023
    17  O    0.000245  -0.005225   0.000395   0.000390   0.077093  -0.004271
    18  H   -0.000090   0.000084  -0.000023  -0.000023  -0.004271   0.002599
    19  H   -0.000090   0.000253  -0.000091  -0.000091  -0.004365   0.001072
              19
     1  Ni   0.003618
     2  O    0.000387
     3  H   -0.000088
     4  H   -0.000024
     5  O    0.000090
     6  H   -0.000023
     7  H   -0.000023
     8  O   -0.000117
     9  H    0.000005
    10  H   -0.000004
    11  O    0.000388
    12  H   -0.000023
    13  H   -0.000090
    14  O    0.000253
    15  H   -0.000091
    16  H   -0.000091
    17  O   -0.004365
    18  H    0.001072
    19  H    0.002593
 Mulliken charges and spin densities:
               1          2
     1  Ni   0.129304   1.826331
     2  O   -0.389417   0.021972
     3  H    0.350412   0.003492
     4  H    0.350810   0.003478
     5  O   -0.389435   0.021977
     6  H    0.350377   0.003493
     7  H    0.350785   0.003475
     8  O   -0.389374   0.021974
     9  H    0.350317   0.003507
    10  H    0.350873   0.003467
    11  O   -0.389417   0.021972
    12  H    0.350412   0.003492
    13  H    0.350810   0.003478
    14  O   -0.389435   0.021977
    15  H    0.350377   0.003493
    16  H    0.350785   0.003475
    17  O   -0.389374   0.021974
    18  H    0.350317   0.003507
    19  H    0.350873   0.003467
 Sum of Mulliken charges =   2.00000   2.00000
 Mulliken charges and spin densities with hydrogens summed into heavy atoms:
               1          2
     1  Ni   0.129304   1.826331
     2  O    0.311805   0.028942
     5  O    0.311727   0.028945
     8  O    0.311816   0.028947
    11  O    0.311805   0.028942
    14  O    0.311727   0.028945
    17  O    0.311816   0.028947
 Electronic spatial extent (au):  <R**2>=           1097.5718
 Charge=              2.0000 electrons
 Dipole moment (field-independent basis, Debye):
    X=              0.0000    Y=              0.0000    Z=              0.0000  Tot=              0.0000
 Quadrupole moment (field-independent basis, Debye-Ang):
   XX=            -15.3655   YY=            -15.3639   ZZ=            -15.3691
   XY=              0.0675   XZ=             -0.0760   YZ=             -0.1287
 Traceless Quadrupole moment (field-independent basis, Debye-Ang):
   XX=              0.0007   YY=              0.0023   ZZ=             -0.0030
   XY=              0.0675   XZ=             -0.0760   YZ=             -0.1287
 Octapole moment (field-independent basis, Debye-Ang**2):
  XXX=              0.0000  YYY=              0.0000  ZZZ=              0.0000  XYY=              0.0000
  XXY=              0.0000  XXZ=              0.0000  XZZ=              0.0000  YZZ=              0.0000
  YYZ=              0.0000  XYZ=              0.0000
 Hexadecapole moment (field-independent basis, Debye-Ang**3):
 XXXX=           -111.6591 YYYY=           -111.6508 ZZZZ=           -111.8149 XXXY=             -0.7172
 XXXZ=             -2.5834 YYYX=              1.9381 YYYZ=              1.5243 ZZZX=              0.9955
 ZZZY=             -4.2588 XXYY=            -98.9844 XXZZ=            -98.9784 YYZZ=            -98.9242
 XXYZ=              0.0330 YYXZ=              0.0351 ZZXY=              0.0386
 N-N= 7.032780158060D+02 E-N=-6.062865563492D+03  KE= 1.963380589349D+03
 Symmetry AG   KE= 1.230460665589D+03
 Symmetry AU   KE= 7.329199237599D+02
                          Isotropic Fermi Contact Couplings
        Atom                 a.u.       MegaHertz       Gauss      10(-4) cm-1
     1  Ni(61)            -1.13364     226.80221      80.92866      75.65307
     2  O(17)              0.09646     -29.23587     -10.43208      -9.75204
     3  H(1)               0.00081       1.80080       0.64257       0.60068
     4  H(1)               0.00079       1.77057       0.63178       0.59060
     5  O(17)              0.09643     -29.22721     -10.42900      -9.74915
     6  H(1)               0.00081       1.80325       0.64344       0.60150
     7  H(1)               0.00079       1.76251       0.62891       0.58791
     8  O(17)              0.09646     -29.23727     -10.43259      -9.75250
     9  H(1)               0.00082       1.82968       0.65288       0.61032
    10  H(1)               0.00078       1.74257       0.62179       0.58126
    11  O(17)              0.09646     -29.23587     -10.43208      -9.75204
    12  H(1)               0.00081       1.80080       0.64257       0.60068
    13  H(1)               0.00079       1.77057       0.63178       0.59060
    14  O(17)              0.09643     -29.22721     -10.42900      -9.74915
    15  H(1)               0.00081       1.80325       0.64344       0.60150
    16  H(1)               0.00079       1.76251       0.62891       0.58791
    17  O(17)              0.09646     -29.23727     -10.43259      -9.75250
    18  H(1)               0.00082       1.82968       0.65288       0.61032
    19  H(1)               0.00078       1.74257       0.62179       0.58126
 --------------------------------------------------------
       Center         ----  Spin Dipole Couplings  ----
                      3XX-RR        3YY-RR        3ZZ-RR
 --------------------------------------------------------
     1   Atom        0.000079      0.000014     -0.000093
     2   Atom        0.157942     -0.080515     -0.077427
     3   Atom        0.023896     -0.007225     -0.016671
     4   Atom        0.023592     -0.006906     -0.016687
     5   Atom       -0.080528     -0.077438      0.157966
     6   Atom       -0.007277     -0.016661      0.023938
     7   Atom       -0.006845     -0.016692      0.023537
     8   Atom       -0.077432      0.157901     -0.080469
     9   Atom       -0.016646      0.024058     -0.007412
    10   Atom       -0.016722      0.023427     -0.006705
    11   Atom        0.157942     -0.080515     -0.077427
    12   Atom        0.023896     -0.007225     -0.016671
    13   Atom        0.023592     -0.006906     -0.016687
    14   Atom       -0.080528     -0.077438      0.157966
    15   Atom       -0.007277     -0.016661      0.023938
    16   Atom       -0.006845     -0.016692      0.023537
    17   Atom       -0.077432      0.157901     -0.080469
    18   Atom       -0.016646      0.024058     -0.007412
    19   Atom       -0.016722      0.023427     -0.006705
 --------------------------------------------------------
                        XY            XZ            YZ
 --------------------------------------------------------
     1   Atom       -0.002005      0.002285      0.003450
     2   Atom       -0.001680     -0.000301     -0.000048
     3   Atom        0.012873     -0.000111      0.000009
     4   Atom       -0.013285     -0.000608      0.000364
     5   Atom        0.000016      0.002226     -0.000321
     6   Atom        0.000217     -0.012802     -0.000490
     7   Atom       -0.000365      0.013357     -0.000673
     8   Atom        0.000208     -0.000028      0.003703
     9   Atom        0.000117     -0.000018     -0.012614
    10   Atom        0.000420      0.000252      0.013544
    11   Atom       -0.001680     -0.000301     -0.000048
    12   Atom        0.012873     -0.000111      0.000009
    13   Atom       -0.013285     -0.000608      0.000364
    14   Atom        0.000016      0.002226     -0.000321
    15   Atom        0.000217     -0.012802     -0.000490
    16   Atom       -0.000365      0.013357     -0.000673
    17   Atom        0.000208     -0.000028      0.003703
    18   Atom        0.000117     -0.000018     -0.012614
    19   Atom        0.000420      0.000252      0.013544
 --------------------------------------------------------


 ---------------------------------------------------------------------------------
              Anisotropic Spin Dipole Couplings in Principal Axis System
 ---------------------------------------------------------------------------------

       Atom             a.u.   MegaHertz   Gauss  10(-4) cm-1        Axes

              Baa    -0.0052     0.250     0.089     0.083 -0.4968 -0.6017  0.6255
     1 Ni(61) Bbb     0.0018    -0.086    -0.031    -0.029  0.8636 -0.4143  0.2873
              Bcc     0.0034    -0.164    -0.058    -0.055  0.0863  0.6829  0.7254
 
              Baa    -0.0805     5.827     2.079     1.944  0.0071  0.9998  0.0162
     2 O(17)  Bbb    -0.0774     5.603     1.999     1.869  0.0012 -0.0162  0.9999
              Bcc     0.1580   -11.429    -4.078    -3.812  1.0000 -0.0070 -0.0013
 
              Baa    -0.0167    -8.895    -3.174    -2.967  0.0053 -0.0082  1.0000
     3 H(1)   Bbb    -0.0119    -6.328    -2.258    -2.111 -0.3387  0.9408  0.0095
              Bcc     0.0285    15.223     5.432     5.078  0.9409  0.3387 -0.0022
 
              Baa    -0.0167    -8.911    -3.180    -2.972  0.0051 -0.0302  0.9995
     4 H(1)   Bbb    -0.0119    -6.337    -2.261    -2.114  0.3510  0.9360  0.0265
              Bcc     0.0286    15.248     5.441     5.086  0.9364 -0.3507 -0.0154
 
              Baa    -0.0805     5.828     2.080     1.944  0.9999 -0.0061 -0.0093
     5 O(17)  Bbb    -0.0774     5.603     1.999     1.869  0.0061  1.0000  0.0013
              Bcc     0.1580   -11.432    -4.079    -3.813  0.0093 -0.0014  1.0000
 
              Baa    -0.0167    -8.893    -3.173    -2.966 -0.0116  0.9999  0.0084
     6 H(1)   Bbb    -0.0119    -6.326    -2.257    -2.110  0.9415  0.0081  0.3369
              Bcc     0.0285    15.219     5.430     5.076 -0.3368 -0.0118  0.9415
 
              Baa    -0.0167    -8.914    -3.181    -2.973  0.0261  0.9996  0.0081
     7 H(1)   Bbb    -0.0119    -6.339    -2.262    -2.114  0.9353 -0.0215 -0.3532
              Bcc     0.0286    15.253     5.443     5.088  0.3528 -0.0168  0.9355
 
              Baa    -0.0805     5.827     2.079     1.944  0.0101 -0.0155  0.9998
     8 O(17)  Bbb    -0.0774     5.603     1.999     1.869  0.9999 -0.0007 -0.0101
              Bcc     0.1580   -11.430    -4.078    -3.813  0.0009  0.9999  0.0155
 
              Baa    -0.0166    -8.882    -3.169    -2.963  1.0000 -0.0039 -0.0034
     9 H(1)   Bbb    -0.0118    -6.319    -2.255    -2.108  0.0045  0.3315  0.9435
              Bcc     0.0285    15.201     5.424     5.070  0.0026  0.9435 -0.3315
 
              Baa    -0.0167    -8.926    -3.185    -2.977  0.9998 -0.0037 -0.0201
    10 H(1)   Bbb    -0.0119    -6.347    -2.265    -2.117  0.0175 -0.3581  0.9335
              Bcc     0.0286    15.273     5.450     5.095  0.0106  0.9337  0.3580
 
              Baa    -0.0805     5.827     2.079     1.944  0.0071  0.9998  0.0162
    11 O(17)  Bbb    -0.0774     5.603     1.999     1.869  0.0012 -0.0162  0.9999
              Bcc     0.1580   -11.429    -4.078    -3.812  1.0000 -0.0070 -0.0013
 
              Baa    -0.0167    -8.895    -3.174    -2.967  0.0053 -0.0082  1.0000
    12 H(1)   Bbb    -0.0119    -6.328    -2.258    -2.111 -0.3387  0.9408  0.0095
              Bcc     0.0285    15.223     5.432     5.078  0.9409  0.3387 -0.0022
 
              Baa    -0.0167    -8.911    -3.180    -2.972  0.0051 -0.0302  0.9995
    13 H(1)   Bbb    -0.0119    -6.337    -2.261    -2.114  0.3510  0.9360  0.0265
              Bcc     0.0286    15.248     5.441     5.086  0.9364 -0.3507 -0.0154
 
              Baa    -0.0805     5.828     2.080     1.944  0.9999 -0.0061 -0.0093
    14 O(17)  Bbb    -0.0774     5.603     1.999     1.869  0.0061  1.0000  0.0013
              Bcc     0.1580   -11.432    -4.079    -3.813  0.0093 -0.0014  1.0000
 
              Baa    -0.0167    -8.893    -3.173    -2.966 -0.0116  0.9999  0.0084
    15 H(1)   Bbb    -0.0119    -6.326    -2.257    -2.110  0.9415  0.0081  0.3369
              Bcc     0.0285    15.219     5.430     5.076 -0.3368 -0.0118  0.9415
 
              Baa    -0.0167    -8.914    -3.181    -2.973  0.0261  0.9996  0.0081
    16 H(1)   Bbb    -0.0119    -6.339    -2.262    -2.114  0.9353 -0.0215 -0.3532
              Bcc     0.0286    15.253     5.443     5.088  0.3528 -0.0168  0.9355
 
              Baa    -0.0805     5.827     2.079     1.944  0.0101 -0.0155  0.9998
    17 O(17)  Bbb    -0.0774     5.603     1.999     1.869  0.9999 -0.0007 -0.0101
              Bcc     0.1580   -11.430    -4.078    -3.813  0.0009  0.9999  0.0155
 
              Baa    -0.0166    -8.882    -3.169    -2.963  1.0000 -0.0039 -0.0034
    18 H(1)   Bbb    -0.0118    -6.319    -2.255    -2.108  0.0045  0.3315  0.9435
              Bcc     0.0285    15.201     5.424     5.070  0.0026  0.9435 -0.3315
 
              Baa    -0.0167    -8.926    -3.185    -2.977  0.9998 -0.0037 -0.0201
    19 H(1)   Bbb    -0.0119    -6.347    -2.265    -2.117  0.0175 -0.3581  0.9335
              Bcc     0.0286    15.273     5.450     5.095  0.0106  0.9337  0.3580
 

 ---------------------------------------------------------------------------------

 1\1\GINC-MN109\FOpt\UM062X\6-311++G(2d,2p)\H12Ni1O6(2+,3)\DARAM_A\29-J
 un-2015\0\\# opt 6-311++g(2d,2p) m062x output=wfnx scf=tight\\Ni[H2O]6
  (2+)\\2,3\Ni,0.,0.,0.\O,-2.0751351256,0.0125990172,0.011299581\H,-2.6
 478061457,-0.7626156601,0.0084185871\H,-2.6355759543,0.7962905831,0.03
 82114611\O,0.0167834924,-0.0176187792,2.0751656488\H,-0.7569764055,-0.
 0320919815,2.6496059163\H,0.8021109245,-0.0432492471,2.6333907295\O,0.
 0083630143,2.0749001784,0.0270418244\H,0.0083337516,2.6552954988,-0.74
 23605526\H,0.0265695822,2.627515067,0.8165618917\O,2.0751351256,-0.012
 5990172,-0.011299581\H,2.6478061457,0.7626156601,-0.0084185871\H,2.635
 5759543,-0.7962905831,-0.0382114611\O,-0.0167834924,0.0176187792,-2.07
 51656488\H,0.7569764055,0.0320919815,-2.6496059163\H,-0.8021109245,0.0
 432492471,-2.6333907295\O,-0.0083630143,-2.0749001784,-0.0270418244\H,
 -0.0083337516,-2.6552954988,0.7423605526\H,-0.0265695822,-2.627515067,
 -0.8165618917\\Version=ES64L-G09RevD.01\State=3-AG\HF=-1966.3574098\S2
 =2.003917\S2-1=0.\S2A=2.00001\RMSD=9.389e-09\RMSF=9.427e-06\Dipole=0.,
 0.,0.\Quadrupole=0.0005205,0.0016899,-0.0022103,0.0501614,-0.0564758,-
 0.0957194\PG=CI [O(Ni1),X(H12O6)]\\@

 Writing a WFNX file to "Ni23.wfx"


 SI MONUMENTUM REQUIRIS, CIRCUMSPICE
     -- FROM SIR CHRISTOPHER WREN'S TOMBSTONE
 Job cpu time:       0 days  1 hours 36 minutes  2.5 seconds.
 File lengths (MBytes):  RWF=     95 Int=      0 D2E=      0 Chk=     12 Scr=      1
 Normal termination of Gaussian 09 at Mon Jun 29 17:32:06 2015.
