 Entering Gaussian System, Link 0=g09
 Input=Cr25.com
 Output=Cr25.log
 Initial command:
 /opt/SC/aplicaciones/g09-D.01/l1.exe "/tmpu/fercor_g/daram_a/Gau-52743.inp" -scrdir="/tmpu/fercor_g/daram_a/"
 Entering Link 1 = /opt/SC/aplicaciones/g09-D.01/l1.exe PID=     52744.
  
 Copyright (c) 1988,1990,1992,1993,1995,1998,2003,2009,2013,
            Gaussian, Inc.  All Rights Reserved.
  
 This is part of the Gaussian(R) 09 program.  It is based on
 the Gaussian(R) 03 system (copyright 2003, Gaussian, Inc.),
 the Gaussian(R) 98 system (copyright 1998, Gaussian, Inc.),
 the Gaussian(R) 94 system (copyright 1995, Gaussian, Inc.),
 the Gaussian 92(TM) system (copyright 1992, Gaussian, Inc.),
 the Gaussian 90(TM) system (copyright 1990, Gaussian, Inc.),
 the Gaussian 88(TM) system (copyright 1988, Gaussian, Inc.),
 the Gaussian 86(TM) system (copyright 1986, Carnegie Mellon
 University), and the Gaussian 82(TM) system (copyright 1983,
 Carnegie Mellon University). Gaussian is a federally registered
 trademark of Gaussian, Inc.
  
 This software contains proprietary and confidential information,
 including trade secrets, belonging to Gaussian, Inc.
  
 This software is provided under written license and may be
 used, copied, transmitted, or stored only in accord with that
 written license.
  
 The following legend is applicable only to US Government
 contracts under FAR:
  
                    RESTRICTED RIGHTS LEGEND
  
 Use, reproduction and disclosure by the US Government is
 subject to restrictions as set forth in subparagraphs (a)
 and (c) of the Commercial Computer Software - Restricted
 Rights clause in FAR 52.227-19.
  
 Gaussian, Inc.
 340 Quinnipiac St., Bldg. 40, Wallingford CT 06492
  
  
 ---------------------------------------------------------------
 Warning -- This program may not be used in any manner that
 competes with the business of Gaussian, Inc. or will provide
 assistance to any competitor of Gaussian, Inc.  The licensee
 of this program is prohibited from giving any competitor of
 Gaussian, Inc. access to this program.  By using this program,
 the user acknowledges that Gaussian, Inc. is engaged in the
 business of creating and licensing software in the field of
 computational chemistry and represents and warrants to the
 licensee that it is not a competitor of Gaussian, Inc. and that
 it will not use this program in any manner prohibited above.
 ---------------------------------------------------------------
  

 Cite this work as:
 Gaussian 09, Revision D.01,
 M. J. Frisch, G. W. Trucks, H. B. Schlegel, G. E. Scuseria, 
 M. A. Robb, J. R. Cheeseman, G. Scalmani, V. Barone, B. Mennucci, 
 G. A. Petersson, H. Nakatsuji, M. Caricato, X. Li, H. P. Hratchian, 
 A. F. Izmaylov, J. Bloino, G. Zheng, J. L. Sonnenberg, M. Hada, 
 M. Ehara, K. Toyota, R. Fukuda, J. Hasegawa, M. Ishida, T. Nakajima, 
 Y. Honda, O. Kitao, H. Nakai, T. Vreven, J. A. Montgomery, Jr., 
 J. E. Peralta, F. Ogliaro, M. Bearpark, J. J. Heyd, E. Brothers, 
 K. N. Kudin, V. N. Staroverov, T. Keith, R. Kobayashi, J. Normand, 
 K. Raghavachari, A. Rendell, J. C. Burant, S. S. Iyengar, J. Tomasi, 
 M. Cossi, N. Rega, J. M. Millam, M. Klene, J. E. Knox, J. B. Cross, 
 V. Bakken, C. Adamo, J. Jaramillo, R. Gomperts, R. E. Stratmann, 
 O. Yazyev, A. J. Austin, R. Cammi, C. Pomelli, J. W. Ochterski, 
 R. L. Martin, K. Morokuma, V. G. Zakrzewski, G. A. Voth, 
 P. Salvador, J. J. Dannenberg, S. Dapprich, A. D. Daniels, 
 O. Farkas, J. B. Foresman, J. V. Ortiz, J. Cioslowski, 
 and D. J. Fox, Gaussian, Inc., Wallingford CT, 2013.
 
 ******************************************
 Gaussian 09:  ES64L-G09RevD.01 24-Apr-2013
                29-Jun-2015 
 ******************************************
 %nprocshared=16
 Will use up to   16 processors via shared memory.
 %mem=32GB
 %chk=Cr25.chk
 -------------------------------------------------
 # opt 6-311++g(2d,2p) m062x output=wfnx scf=tight
 -------------------------------------------------
 1/14=-1,18=20,19=15,26=3,38=1/1,3;
 2/9=110,12=2,17=6,18=5,40=1/2;
 3/5=4,6=6,7=1212,11=2,16=1,25=1,30=1,71=1,74=-55/1,2,3;
 4//1;
 5/5=2,32=2,38=5/2;
 6/7=2,8=2,9=2,10=2,28=1/1;
 7//1,2,3,16;
 1/14=-1,18=20,19=15,26=3/3(2);
 2/9=110/2;
 99/6=200/99;
 2/9=110/2;
 3/5=4,6=6,7=1212,11=2,16=1,25=1,30=1,71=1,74=-55/1,2,3;
 4/5=5,16=3,69=1/1;
 5/5=2,32=2,38=5/2;
 7//1,2,3,16;
 1/14=-1,18=20,19=15,26=3/3(-5);
 2/9=110/2;
 6/7=2,8=2,9=2,10=2,19=2,28=1/1;
 99/6=200,9=1/99;
 -------------
 Cr[H2O]6 (2+)
 -------------
 Symbolic Z-matrix:
 Charge =  2 Multiplicity = 5
 Cr                   -0.00006   0.00009  -0.00037 
 O                    -0.00656   0.02628  -2.10423 
 O                    -2.32431   0.01338   0.0098 
 O                     2.32425  -0.01401  -0.00766 
 O                     0.00676  -0.0256    2.10375 
 O                    -0.02046  -2.10591  -0.02663 
 O                     0.02034   2.106     0.02605 
 H                    -0.78813   0.03692  -2.66936 
 H                     0.77211   0.02875  -2.67329 
 H                    -2.90501   0.7826    0.02179 
 H                    -2.90718  -0.75432   0.00118 
 H                     2.90723   0.75362   0.0005 
 H                     2.90472  -0.78347  -0.02007 
 H                     0.78864  -0.03649   2.66834 
 H                    -0.77152  -0.02954   2.67339 
 H                    -0.02182  -2.66551  -0.81167 
 H                    -0.01612  -2.68585   0.7435 
 H                     0.02209   2.66545   0.81122 
 H                     0.01619   2.68596  -0.74403 
 
 Add virtual bond connecting atoms O3         and Cr1        Dist= 4.39D+00.
 Add virtual bond connecting atoms O4         and Cr1        Dist= 4.39D+00.

 GradGradGradGradGradGradGradGradGradGradGradGradGradGradGradGradGradGrad
 Berny optimization.
 Initialization pass.
                           ----------------------------
                           !    Initial Parameters    !
                           ! (Angstroms and Degrees)  !
 --------------------------                            --------------------------
 ! Name  Definition              Value          Derivative Info.                !
 --------------------------------------------------------------------------------
 ! R1    R(1,2)                  2.104          estimate D2E/DX2                !
 ! R2    R(1,3)                  2.3243         estimate D2E/DX2                !
 ! R3    R(1,4)                  2.3244         estimate D2E/DX2                !
 ! R4    R(1,5)                  2.1043         estimate D2E/DX2                !
 ! R5    R(1,6)                  2.1063         estimate D2E/DX2                !
 ! R6    R(1,7)                  2.1062         estimate D2E/DX2                !
 ! R7    R(2,8)                  0.9645         estimate D2E/DX2                !
 ! R8    R(2,9)                  0.9645         estimate D2E/DX2                !
 ! R9    R(3,10)                 0.9639         estimate D2E/DX2                !
 ! R10   R(3,11)                 0.9639         estimate D2E/DX2                !
 ! R11   R(4,12)                 0.9639         estimate D2E/DX2                !
 ! R12   R(4,13)                 0.9639         estimate D2E/DX2                !
 ! R13   R(5,14)                 0.9645         estimate D2E/DX2                !
 ! R14   R(5,15)                 0.9645         estimate D2E/DX2                !
 ! R15   R(6,16)                 0.9641         estimate D2E/DX2                !
 ! R16   R(6,17)                 0.9641         estimate D2E/DX2                !
 ! R17   R(7,18)                 0.9641         estimate D2E/DX2                !
 ! R18   R(7,19)                 0.964          estimate D2E/DX2                !
 ! A1    A(2,1,3)               90.0698         estimate D2E/DX2                !
 ! A2    A(2,1,4)               90.0014         estimate D2E/DX2                !
 ! A3    A(2,1,6)               89.997          estimate D2E/DX2                !
 ! A4    A(2,1,7)               90.0076         estimate D2E/DX2                !
 ! A5    A(3,1,5)               89.9391         estimate D2E/DX2                !
 ! A6    A(3,1,6)               89.7758         estimate D2E/DX2                !
 ! A7    A(3,1,7)               90.2245         estimate D2E/DX2                !
 ! A8    A(4,1,5)               89.9897         estimate D2E/DX2                !
 ! A9    A(4,1,6)               90.2048         estimate D2E/DX2                !
 ! A10   A(4,1,7)               89.7949         estimate D2E/DX2                !
 ! A11   A(5,1,6)               90.0165         estimate D2E/DX2                !
 ! A12   A(5,1,7)               89.9789         estimate D2E/DX2                !
 ! A13   A(1,2,8)              126.0504         estimate D2E/DX2                !
 ! A14   A(1,2,9)              125.9818         estimate D2E/DX2                !
 ! A15   A(8,2,9)              107.9677         estimate D2E/DX2                !
 ! A16   A(1,3,10)             127.3774         estimate D2E/DX2                !
 ! A17   A(1,3,11)             126.8749         estimate D2E/DX2                !
 ! A18   A(10,3,11)            105.7476         estimate D2E/DX2                !
 ! A19   A(1,4,12)             126.8635         estimate D2E/DX2                !
 ! A20   A(1,4,13)             127.3773         estimate D2E/DX2                !
 ! A21   A(12,4,13)            105.7591         estimate D2E/DX2                !
 ! A22   A(1,5,14)             126.0225         estimate D2E/DX2                !
 ! A23   A(1,5,15)             126.0153         estimate D2E/DX2                !
 ! A24   A(14,5,15)            107.9621         estimate D2E/DX2                !
 ! A25   A(1,6,16)             126.1953         estimate D2E/DX2                !
 ! A26   A(1,6,17)             126.2615         estimate D2E/DX2                !
 ! A27   A(16,6,17)            107.5369         estimate D2E/DX2                !
 ! A28   A(1,7,18)             126.1886         estimate D2E/DX2                !
 ! A29   A(1,7,19)             126.26           estimate D2E/DX2                !
 ! A30   A(18,7,19)            107.5456         estimate D2E/DX2                !
 ! A31   L(2,1,5,3,-1)         180.0089         estimate D2E/DX2                !
 ! A32   L(3,1,4,2,-1)         180.0713         estimate D2E/DX2                !
 ! A33   L(6,1,7,2,-1)         180.0046         estimate D2E/DX2                !
 ! A34   L(2,1,5,3,-2)         180.0135         estimate D2E/DX2                !
 ! A35   L(3,1,4,2,-2)         180.0194         estimate D2E/DX2                !
 ! A36   L(6,1,7,2,-2)         180.0003         estimate D2E/DX2                !
 ! D1    D(3,1,2,8)             -0.0649         estimate D2E/DX2                !
 ! D2    D(3,1,2,9)           -179.9923         estimate D2E/DX2                !
 ! D3    D(4,1,2,8)            179.9157         estimate D2E/DX2                !
 ! D4    D(4,1,2,9)             -0.0117         estimate D2E/DX2                !
 ! D5    D(6,1,2,8)             89.7109         estimate D2E/DX2                !
 ! D6    D(6,1,2,9)            -90.2165         estimate D2E/DX2                !
 ! D7    D(7,1,2,8)            -90.2894         estimate D2E/DX2                !
 ! D8    D(7,1,2,9)             89.7832         estimate D2E/DX2                !
 ! D9    D(8,2,5,14)           179.9818         estimate D2E/DX2                !
 ! D10   D(8,2,5,15)             0.0447         estimate D2E/DX2                !
 ! D11   D(9,2,5,14)             0.0446         estimate D2E/DX2                !
 ! D12   D(9,2,5,15)          -179.8926         estimate D2E/DX2                !
 ! D13   D(2,1,3,10)           -89.9936         estimate D2E/DX2                !
 ! D14   D(2,1,3,11)            89.8834         estimate D2E/DX2                !
 ! D15   D(5,1,3,10)            89.9929         estimate D2E/DX2                !
 ! D16   D(5,1,3,11)           -90.1301         estimate D2E/DX2                !
 ! D17   D(6,1,3,10)          -179.9904         estimate D2E/DX2                !
 ! D18   D(6,1,3,11)            -0.1133         estimate D2E/DX2                !
 ! D19   D(7,1,3,10)             0.0142         estimate D2E/DX2                !
 ! D20   D(7,1,3,11)           179.8912         estimate D2E/DX2                !
 ! D21   D(10,3,4,12)            0.0355         estimate D2E/DX2                !
 ! D22   D(10,3,4,13)         -179.9695         estimate D2E/DX2                !
 ! D23   D(11,3,4,12)          179.9665         estimate D2E/DX2                !
 ! D24   D(11,3,4,13)           -0.0385         estimate D2E/DX2                !
 ! D25   D(2,1,4,12)            90.0297         estimate D2E/DX2                !
 ! D26   D(2,1,4,13)           -89.9215         estimate D2E/DX2                !
 ! D27   D(5,1,4,12)           -89.9568         estimate D2E/DX2                !
 ! D28   D(5,1,4,13)            90.0921         estimate D2E/DX2                !
 ! D29   D(6,1,4,12)          -179.9733         estimate D2E/DX2                !
 ! D30   D(6,1,4,13)             0.0756         estimate D2E/DX2                !
 ! D31   D(7,1,4,12)             0.0221         estimate D2E/DX2                !
 ! D32   D(7,1,4,13)          -179.929          estimate D2E/DX2                !
 ! D33   D(3,1,5,14)          -179.9631         estimate D2E/DX2                !
 ! D34   D(3,1,5,15)             0.1096         estimate D2E/DX2                !
 ! D35   D(4,1,5,14)             0.0563         estimate D2E/DX2                !
 ! D36   D(4,1,5,15)          -179.871          estimate D2E/DX2                !
 ! D37   D(6,1,5,14)            90.2611         estimate D2E/DX2                !
 ! D38   D(6,1,5,15)           -89.6663         estimate D2E/DX2                !
 ! D39   D(7,1,5,14)           -89.7386         estimate D2E/DX2                !
 ! D40   D(7,1,5,15)            90.3341         estimate D2E/DX2                !
 ! D41   D(2,1,6,16)             0.482          estimate D2E/DX2                !
 ! D42   D(2,1,6,17)           179.4507         estimate D2E/DX2                !
 ! D43   D(3,1,6,16)            90.5519         estimate D2E/DX2                !
 ! D44   D(3,1,6,17)           -90.4795         estimate D2E/DX2                !
 ! D45   D(4,1,6,16)           -89.5194         estimate D2E/DX2                !
 ! D46   D(4,1,6,17)            89.4493         estimate D2E/DX2                !
 ! D47   D(5,1,6,16)          -179.5091         estimate D2E/DX2                !
 ! D48   D(5,1,6,17)            -0.5404         estimate D2E/DX2                !
 ! D49   D(16,6,7,18)         -179.9717         estimate D2E/DX2                !
 ! D50   D(16,6,7,19)            1.0184         estimate D2E/DX2                !
 ! D51   D(17,6,7,18)           -1.0033         estimate D2E/DX2                !
 ! D52   D(17,6,7,19)          179.9869         estimate D2E/DX2                !
 ! D53   D(2,1,7,18)           179.546          estimate D2E/DX2                !
 ! D54   D(2,1,7,19)             0.5364         estimate D2E/DX2                !
 ! D55   D(3,1,7,18)            89.4761         estimate D2E/DX2                !
 ! D56   D(3,1,7,19)           -89.5335         estimate D2E/DX2                !
 ! D57   D(4,1,7,18)           -90.4526         estimate D2E/DX2                !
 ! D58   D(4,1,7,19)            90.5378         estimate D2E/DX2                !
 ! D59   D(5,1,7,18)            -0.4629         estimate D2E/DX2                !
 ! D60   D(5,1,7,19)          -179.4725         estimate D2E/DX2                !
 --------------------------------------------------------------------------------
 Trust Radius=3.00D-01 FncErr=1.00D-07 GrdErr=1.00D-06
 Number of steps in this run=    114 maximum allowed number of steps=    114.
 GradGradGradGradGradGradGradGradGradGradGradGradGradGradGradGradGradGrad

                          Input orientation:                          
 ---------------------------------------------------------------------
 Center     Atomic      Atomic             Coordinates (Angstroms)
 Number     Number       Type             X           Y           Z
 ---------------------------------------------------------------------
      1         24           0       -0.000065    0.000094   -0.000371
      2          8           0       -0.006558    0.026276   -2.104230
      3          8           0       -2.324312    0.013376    0.009801
      4          8           0        2.324254   -0.014012   -0.007663
      5          8           0        0.006760   -0.025598    2.103752
      6          8           0       -0.020456   -2.105913   -0.026627
      7          8           0        0.020338    2.106000    0.026051
      8          1           0       -0.788129    0.036924   -2.669362
      9          1           0        0.772115    0.028751   -2.673293
     10          1           0       -2.905013    0.782599    0.021795
     11          1           0       -2.907181   -0.754323    0.001182
     12          1           0        2.907233    0.753620    0.000504
     13          1           0        2.904724   -0.783467   -0.020066
     14          1           0        0.788643   -0.036489    2.668342
     15          1           0       -0.771520   -0.029545    2.673390
     16          1           0       -0.021823   -2.665510   -0.811675
     17          1           0       -0.016125   -2.685847    0.743495
     18          1           0        0.022088    2.665449    0.811225
     19          1           0        0.016187    2.685961   -0.744026
 ---------------------------------------------------------------------
                    Distance matrix (angstroms):
                    1          2          3          4          5
     1  Cr   0.000000
     2  O    2.104032   0.000000
     3  O    2.324308   3.137082   0.000000
     4  O    2.324373   3.135267   4.648680   0.000000
     5  O    2.104291   4.208323   3.133696   3.135121   0.000000
     6  O    2.106269   2.977055   3.130570   3.142304   2.977745
     7  O    2.106171   2.977260   3.142725   3.131072   2.976698
     8  H    2.783148   0.964542   3.088419   4.095627   4.839254
     9  H    2.782372   0.964453   4.097205   3.084890   4.838272
    10  H    3.008577   3.673289   0.963878   5.289678   3.669626
    11  H    3.003410   3.668203   0.963936   5.283564   3.666455
    12  H    3.003361   3.667303   5.283664   0.963944   3.666547
    13  H    3.008679   3.670829   5.289487   0.963930   3.671942
    14  H    2.783060   4.838773   4.093997   3.085386   0.964479
    15  H    2.782988   4.838796   3.083458   4.095376   0.964481
    16  H    2.786419   2.986075   3.626667   3.630559   3.933150
    17  H    2.787090   3.932587   3.626547   3.630470   2.987934
    18  H    2.786270   3.932675   3.630615   3.626301   2.985397
    19  H    2.786965   2.987407   3.631653   3.627569   3.932236
                    6          7          8          9         10
     6  O    0.000000
     7  O    4.212440   0.000000
     8  H    3.487853   3.492842   0.000000
     9  H    3.491389   3.488064   1.560270   0.000000
    10  H    4.082465   3.210777   3.504219   4.620936   0.000000
    11  H    3.187593   4.092974   3.499751   4.615543   1.537062
    12  H    4.092557   3.188063   4.614925   3.497621   5.812357
    13  H    3.210230   4.082992   4.618330   3.499619   6.017255
    14  H    3.492852   3.487442   5.566209   5.342058   4.617165
    15  H    3.487907   3.492277   5.343191   5.565359   3.498904
    16  H    0.964081   4.844675   3.367696   3.369718   4.571314
    17  H    0.964070   4.845395   4.433629   4.434501   4.571285
    18  H    4.844554   0.964098   4.436224   4.433574   3.568788
    19  H    4.845416   0.964050   3.372127   3.369609   3.569689
                   11         12         13         14         15
    11  H    0.000000
    12  H    6.006771   0.000000
    13  H    5.812017   1.537227   0.000000
    14  H    4.613907   3.497149   3.501901   0.000000
    15  H    3.496719   4.614205   4.619294   1.560187   0.000000
    16  H    3.555090   4.574872   3.568390   4.436116   4.433513
    17  H    3.555280   4.574712   3.568393   3.372208   3.369133
    18  H    4.575110   3.554774   4.571177   3.367040   3.370529
    19  H    4.575693   3.556180   4.572166   4.433134   4.435447
                   16         17         18         19
    16  H    0.000000
    17  H    1.555313   0.000000
    18  H    5.572689   5.351861   0.000000
    19  H    5.352034   5.574055   1.555397   0.000000
 Stoichiometry    CrH12O6(2+,5)
 Framework group  C1[X(CrH12O6)]
 Deg. of freedom    51
 Full point group                 C1      NOp   1
 Largest Abelian subgroup         C1      NOp   1
 Largest concise Abelian subgroup C1      NOp   1
                         Standard orientation:                         
 ---------------------------------------------------------------------
 Center     Atomic      Atomic             Coordinates (Angstroms)
 Number     Number       Type             X           Y           Z
 ---------------------------------------------------------------------
      1         24           0       -0.000060   -0.000016    0.000394
      2          8           0        0.006023    0.303611    2.082394
      3          8           0       -2.324089   -0.034872    0.009403
      4          8           0        2.324015    0.035202   -0.011590
      5          8           0       -0.005807   -0.304166   -2.081792
      6          8           0       -0.040733    2.083850   -0.303275
      7          8           0        0.040623   -2.083809    0.303883
      8          1           0       -0.772085    0.374840    2.647916
      9          1           0        0.788002    0.397051    2.639123
     10          1           0       -2.897358   -0.801482    0.122241
     11          1           0       -2.914320    0.719620   -0.098029
     12          1           0        2.914358   -0.719151    0.096278
     13          1           0        2.897053    0.802104   -0.124057
     14          1           0        0.772612   -0.375068   -2.646819
     15          1           0       -0.787413   -0.396239   -2.639323
     16          1           0       -0.042933    2.759474    0.384460
     17          1           0       -0.046540    2.536013   -1.154712
     18          1           0        0.043203   -2.759303   -0.384002
     19          1           0        0.046609   -2.536004    1.155279
 ---------------------------------------------------------------------
 Rotational constants (GHZ):      1.4606796      1.3223862      1.3212774
 Standard basis: 6-311++G(2d,2p) (5D, 7F)
 There are   369 symmetry adapted cartesian basis functions of A   symmetry.
 There are   347 symmetry adapted basis functions of A   symmetry.
   347 basis functions,   500 primitive gaussians,   369 cartesian basis functions
    43 alpha electrons       39 beta electrons
       nuclear repulsion energy       618.9529243690 Hartrees.
 NAtoms=   19 NActive=   19 NUniq=   19 SFac= 1.00D+00 NAtFMM=   60 NAOKFM=F Big=F
 Integral buffers will be    131072 words long.
 Raffenetti 2 integral format.
 Two-electron integral symmetry is turned on.
 One-electron integrals computed using PRISM.
 NBasis=   347 RedAO= T EigKep=  4.25D-04  NBF=   347
 NBsUse=   347 1.00D-06 EigRej= -1.00D+00 NBFU=   347
 ExpMin= 1.13D-02 ExpMax= 2.37D+05 ExpMxC= 8.06D+03 IAcc=3 IRadAn=         5 AccDes= 0.00D+00
 Harris functional with IExCor= 1009 and IRadAn=       5 diagonalized for initial guess.
 HarFok:  IExCor= 1009 AccDes= 0.00D+00 IRadAn=         5 IDoV= 1 UseB2=F ITyADJ=14
 ICtDFT=  3500011 ScaDFX=  1.000000  1.000000  1.000000  1.000000
 FoFCou: FMM=F IPFlag=           0 FMFlag=      100000 FMFlg1=           0
         NFxFlg=           0 DoJE=T BraDBF=F KetDBF=T FulRan=T
         wScrn=  0.000000 ICntrl=     500 IOpCl=  0 I1Cent=   200000004 NGrid=           0
         NMat0=    1 NMatS0=      1 NMatT0=    0 NMatD0=    1 NMtDS0=    0 NMtDT0=    0
 Petite list used in FoFCou.
 Initial guess <Sx>= 0.0000 <Sy>= 0.0000 <Sz>= 2.0000 <S**2>= 6.0000 S= 2.0000
 Keep R1 and R2 ints in memory in canonical form, NReq=3671325250.
 Requested convergence on RMS density matrix=1.00D-08 within 128 cycles.
 Requested convergence on MAX density matrix=1.00D-06.
 Requested convergence on             energy=1.00D-06.
 No special actions if energy rises.
 SCF Done:  E(UM062X) =  -1502.59032320     A.U. after   22 cycles
            NFock= 22  Conv=0.14D-08     -V/T= 2.0016
 <Sx>= 0.0000 <Sy>= 0.0000 <Sz>= 2.0000 <S**2>= 6.0030 S= 2.0006
 <L.S>= 0.000000000000E+00
 Annihilation of the first spin contaminant:
 S**2 before annihilation     6.0030,   after     6.0000

 **********************************************************************

            Population analysis using the SCF density.

 **********************************************************************

 Orbital symmetries:
 Alpha Orbitals:
       Occupied  (A) (A) (A) (A) (A) (A) (A) (A) (A) (A) (A) (A)
                 (A) (A) (A) (A) (A) (A) (A) (A) (A) (A) (A) (A)
                 (A) (A) (A) (A) (A) (A) (A) (A) (A) (A) (A) (A)
                 (A) (A) (A) (A) (A) (A) (A)
       Virtual   (A) (A) (A) (A) (A) (A) (A) (A) (A) (A) (A) (A)
                 (A) (A) (A) (A) (A) (A) (A) (A) (A) (A) (A) (A)
                 (A) (A) (A) (A) (A) (A) (A) (A) (A) (A) (A) (A)
                 (A) (A) (A) (A) (A) (A) (A) (A) (A) (A) (A) (A)
                 (A) (A) (A) (A) (A) (A) (A) (A) (A) (A) (A) (A)
                 (A) (A) (A) (A) (A) (A) (A) (A) (A) (A) (A) (A)
                 (A) (A) (A) (A) (A) (A) (A) (A) (A) (A) (A) (A)
                 (A) (A) (A) (A) (A) (A) (A) (A) (A) (A) (A) (A)
                 (A) (A) (A) (A) (A) (A) (A) (A) (A) (A) (A) (A)
                 (A) (A) (A) (A) (A) (A) (A) (A) (A) (A) (A) (A)
                 (A) (A) (A) (A) (A) (A) (A) (A) (A) (A) (A) (A)
                 (A) (A) (A) (A) (A) (A) (A) (A) (A) (A) (A) (A)
                 (A) (A) (A) (A) (A) (A) (A) (A) (A) (A) (A) (A)
                 (A) (A) (A) (A) (A) (A) (A) (A) (A) (A) (A) (A)
                 (A) (A) (A) (A) (A) (A) (A) (A) (A) (A) (A) (A)
                 (A) (A) (A) (A) (A) (A) (A) (A) (A) (A) (A) (A)
                 (A) (A) (A) (A) (A) (A) (A) (A) (A) (A) (A) (A)
                 (A) (A) (A) (A) (A) (A) (A) (A) (A) (A) (A) (A)
                 (A) (A) (A) (A) (A) (A) (A) (A) (A) (A) (A) (A)
                 (A) (A) (A) (A) (A) (A) (A) (A) (A) (A) (A) (A)
                 (A) (A) (A) (A) (A) (A) (A) (A) (A) (A) (A) (A)
                 (A) (A) (A) (A) (A) (A) (A) (A) (A) (A) (A) (A)
                 (A) (A) (A) (A) (A) (A) (A) (A) (A) (A) (A) (A)
                 (A) (A) (A) (A) (A) (A) (A) (A) (A) (A) (A) (A)
                 (A) (A) (A) (A) (A) (A) (A) (A) (A) (A) (A) (A)
                 (A) (A) (A) (A)
 Beta  Orbitals:
       Occupied  (A) (A) (A) (A) (A) (A) (A) (A) (A) (A) (A) (A)
                 (A) (A) (A) (A) (A) (A) (A) (A) (A) (A) (A) (A)
                 (A) (A) (A) (A) (A) (A) (A) (A) (A) (A) (A) (A)
                 (A) (A) (A)
       Virtual   (A) (A) (A) (A) (A) (A) (A) (A) (A) (A) (A) (A)
                 (A) (A) (A) (A) (A) (A) (A) (A) (A) (A) (A) (A)
                 (A) (A) (A) (A) (A) (A) (A) (A) (A) (A) (A) (A)
                 (A) (A) (A) (A) (A) (A) (A) (A) (A) (A) (A) (A)
                 (A) (A) (A) (A) (A) (A) (A) (A) (A) (A) (A) (A)
                 (A) (A) (A) (A) (A) (A) (A) (A) (A) (A) (A) (A)
                 (A) (A) (A) (A) (A) (A) (A) (A) (A) (A) (A) (A)
                 (A) (A) (A) (A) (A) (A) (A) (A) (A) (A) (A) (A)
                 (A) (A) (A) (A) (A) (A) (A) (A) (A) (A) (A) (A)
                 (A) (A) (A) (A) (A) (A) (A) (A) (A) (A) (A) (A)
                 (A) (A) (A) (A) (A) (A) (A) (A) (A) (A) (A) (A)
                 (A) (A) (A) (A) (A) (A) (A) (A) (A) (A) (A) (A)
                 (A) (A) (A) (A) (A) (A) (A) (A) (A) (A) (A) (A)
                 (A) (A) (A) (A) (A) (A) (A) (A) (A) (A) (A) (A)
                 (A) (A) (A) (A) (A) (A) (A) (A) (A) (A) (A) (A)
                 (A) (A) (A) (A) (A) (A) (A) (A) (A) (A) (A) (A)
                 (A) (A) (A) (A) (A) (A) (A) (A) (A) (A) (A) (A)
                 (A) (A) (A) (A) (A) (A) (A) (A) (A) (A) (A) (A)
                 (A) (A) (A) (A) (A) (A) (A) (A) (A) (A) (A) (A)
                 (A) (A) (A) (A) (A) (A) (A) (A) (A) (A) (A) (A)
                 (A) (A) (A) (A) (A) (A) (A) (A) (A) (A) (A) (A)
                 (A) (A) (A) (A) (A) (A) (A) (A) (A) (A) (A) (A)
                 (A) (A) (A) (A) (A) (A) (A) (A) (A) (A) (A) (A)
                 (A) (A) (A) (A) (A) (A) (A) (A) (A) (A) (A) (A)
                 (A) (A) (A) (A) (A) (A) (A) (A) (A) (A) (A) (A)
                 (A) (A) (A) (A) (A) (A) (A) (A)
 The electronic state is 5-A.
 Alpha  occ. eigenvalues -- -217.66084 -25.51087 -21.80183 -21.80176 -21.79616
 Alpha  occ. eigenvalues --  -19.97000 -19.96993 -19.96725 -19.96724 -19.93719
 Alpha  occ. eigenvalues --  -19.93717  -3.42977  -2.36202  -2.36160  -2.35851
 Alpha  occ. eigenvalues --   -1.48203  -1.47788  -1.47552  -1.47523  -1.44591
 Alpha  occ. eigenvalues --   -1.44560  -0.95794  -0.95639  -0.95597  -0.95401
 Alpha  occ. eigenvalues --   -0.92122  -0.92052  -0.88540  -0.85302  -0.84565
 Alpha  occ. eigenvalues --   -0.84516  -0.82943  -0.81267  -0.76459  -0.76018
 Alpha  occ. eigenvalues --   -0.75091  -0.74701  -0.72420  -0.71738  -0.66589
 Alpha  occ. eigenvalues --   -0.64944  -0.64441  -0.60920
 Alpha virt. eigenvalues --   -0.28400  -0.26421  -0.24851  -0.24762  -0.24112
 Alpha virt. eigenvalues --   -0.20840  -0.20236  -0.19632  -0.19402  -0.18954
 Alpha virt. eigenvalues --   -0.17267  -0.17181  -0.16574  -0.15335  -0.13245
 Alpha virt. eigenvalues --   -0.13102  -0.13081  -0.09433  -0.09161  -0.08727
 Alpha virt. eigenvalues --   -0.07331  -0.07224  -0.06845  -0.06723  -0.06721
 Alpha virt. eigenvalues --   -0.06406  -0.06261  -0.04776  -0.04424  -0.04393
 Alpha virt. eigenvalues --   -0.03246  -0.03234  -0.03147  -0.02777  -0.02755
 Alpha virt. eigenvalues --   -0.02635  -0.02414  -0.02276   0.01429   0.01851
 Alpha virt. eigenvalues --    0.01860   0.02044   0.02103   0.02138   0.02276
 Alpha virt. eigenvalues --    0.05138   0.05414   0.05476   0.08712   0.13330
 Alpha virt. eigenvalues --    0.13854   0.14482   0.16188   0.17638   0.17653
 Alpha virt. eigenvalues --    0.17889   0.18350   0.18773   0.19075   0.19951
 Alpha virt. eigenvalues --    0.20357   0.22902   0.24916   0.29034   0.29559
 Alpha virt. eigenvalues --    0.29851   0.30382   0.30600   0.32201   0.34725
 Alpha virt. eigenvalues --    0.34771   0.35700   0.35788   0.38040   0.40438
 Alpha virt. eigenvalues --    0.42229   0.42255   0.42774   0.43131   0.43282
 Alpha virt. eigenvalues --    0.43943   0.51516   0.51574   0.55810   0.57248
 Alpha virt. eigenvalues --    0.59826   0.60699   0.61159   0.61287   0.62719
 Alpha virt. eigenvalues --    0.63181   0.63712   0.64053   0.66572   0.67960
 Alpha virt. eigenvalues --    0.68051   0.68310   0.69200   0.71778   0.74244
 Alpha virt. eigenvalues --    0.74649   0.74947   0.79412   0.79558   0.79712
 Alpha virt. eigenvalues --    0.83539   0.83830   0.85279   0.85376   0.89190
 Alpha virt. eigenvalues --    0.92295   0.92464   0.92596   0.92699   0.94168
 Alpha virt. eigenvalues --    0.94630   0.95618   0.96516   1.03415   1.06850
 Alpha virt. eigenvalues --    1.07078   1.09008   1.11403   1.12241   1.13071
 Alpha virt. eigenvalues --    1.13605   1.18550   1.18745   1.19808   1.20032
 Alpha virt. eigenvalues --    1.21203   1.21914   1.25377   1.26045   1.28058
 Alpha virt. eigenvalues --    1.30526   1.30572   1.30959   1.31784   1.34698
 Alpha virt. eigenvalues --    1.38189   1.40082   1.40223   1.40628   1.47149
 Alpha virt. eigenvalues --    1.48800   1.49764   1.49906   1.50181   1.51758
 Alpha virt. eigenvalues --    1.51906   1.52751   1.53967   1.55756   1.57820
 Alpha virt. eigenvalues --    1.58732   1.59339   1.59362   1.60974   1.70857
 Alpha virt. eigenvalues --    1.73252   1.73551   1.74789   1.89603   1.92048
 Alpha virt. eigenvalues --    1.93082   1.93464   1.96550   2.05007   2.05592
 Alpha virt. eigenvalues --    2.06494   2.08964   2.09785   2.09798   2.10492
 Alpha virt. eigenvalues --    2.11119   2.12736   2.19874   2.21246   2.21911
 Alpha virt. eigenvalues --    2.24173   2.31642   2.36034   2.37817   2.45150
 Alpha virt. eigenvalues --    2.49429   2.58972   2.59573   2.60671   2.64852
 Alpha virt. eigenvalues --    2.66812   2.67549   2.90881   3.40538   3.41502
 Alpha virt. eigenvalues --    3.42746   3.43879   3.45708   3.47580   3.49572
 Alpha virt. eigenvalues --    3.51529   3.52283   3.52977   3.53001   3.53448
 Alpha virt. eigenvalues --    3.56134   3.57115   3.57694   3.57786   3.58007
 Alpha virt. eigenvalues --    3.58522   3.81842   3.82008   3.83111   3.83427
 Alpha virt. eigenvalues --    3.83889   3.84116   3.84320   3.84345   3.84854
 Alpha virt. eigenvalues --    3.85761   3.85959   3.86474   3.95099   3.95382
 Alpha virt. eigenvalues --    3.96932   3.98065   3.98847   4.00232   4.55523
 Alpha virt. eigenvalues --    4.67254   4.69085   4.70524   4.70731   4.73063
 Alpha virt. eigenvalues --    4.73323   4.87736   4.89708   4.90934   4.91148
 Alpha virt. eigenvalues --    4.91420   4.92390   4.92437   4.99748   5.00878
 Alpha virt. eigenvalues --    5.01620   5.15472   5.48447   5.49123   5.49497
 Alpha virt. eigenvalues --    5.52509   5.55267   5.59106   5.94001   5.94159
 Alpha virt. eigenvalues --    5.94731   5.96256   5.99266   5.99369   6.52127
 Alpha virt. eigenvalues --    6.52508   6.53386   6.53442   6.54730   6.54794
 Alpha virt. eigenvalues --    6.55115   6.57044   6.61694   6.61970   6.62880
 Alpha virt. eigenvalues --    6.62911   6.64946   6.65498   6.74317   6.74525
 Alpha virt. eigenvalues --    6.88094   6.92451   6.94778   6.95248   6.95711
 Alpha virt. eigenvalues --    6.97614   6.99722   7.00090   7.01980   7.11941
 Alpha virt. eigenvalues --    7.12549   7.14204   7.14487   7.15327   7.15913
 Alpha virt. eigenvalues --    7.28996   7.29173  22.17728  29.35022  29.36922
 Alpha virt. eigenvalues --   29.37004  49.74922  49.75516  49.75801  49.76115
 Alpha virt. eigenvalues --   49.76683  49.77500 127.34832 682.79995
  Beta  occ. eigenvalues -- -217.66279 -25.43777 -21.74691 -21.74671 -21.72040
  Beta  occ. eigenvalues --  -19.96984 -19.96977 -19.96710 -19.96708 -19.93613
  Beta  occ. eigenvalues --  -19.93611  -3.25889  -2.16596  -2.16539  -2.10965
  Beta  occ. eigenvalues --   -1.48136  -1.47711  -1.47480  -1.47473  -1.44392
  Beta  occ. eigenvalues --   -1.44357  -0.95599  -0.95552  -0.95394  -0.95328
  Beta  occ. eigenvalues --   -0.91944  -0.91928  -0.88079  -0.85101  -0.84640
  Beta  occ. eigenvalues --   -0.84589  -0.81142  -0.80913  -0.75120  -0.74810
  Beta  occ. eigenvalues --   -0.74809  -0.74383  -0.71535  -0.71448
  Beta virt. eigenvalues --   -0.28216  -0.24760  -0.24674  -0.24018  -0.22291
  Beta virt. eigenvalues --   -0.21821  -0.21511  -0.20718  -0.19871  -0.19337
  Beta virt. eigenvalues --   -0.19205  -0.18847  -0.17192  -0.17090  -0.16493
  Beta virt. eigenvalues --   -0.15283  -0.15049  -0.13093  -0.12903  -0.12816
  Beta virt. eigenvalues --   -0.12781  -0.09307  -0.09131  -0.08511  -0.06936
  Beta virt. eigenvalues --   -0.06660  -0.06573  -0.05987  -0.05754  -0.05240
  Beta virt. eigenvalues --   -0.05069  -0.04393  -0.04245  -0.04021  -0.03166
  Beta virt. eigenvalues --   -0.03163  -0.02756  -0.02549  -0.02529  -0.02514
  Beta virt. eigenvalues --   -0.02174  -0.01914   0.02513   0.02525   0.02651
  Beta virt. eigenvalues --    0.03019   0.03230   0.03914   0.04226   0.05108
  Beta virt. eigenvalues --    0.05525   0.05606   0.08676   0.13320   0.13902
  Beta virt. eigenvalues --    0.15349   0.16803   0.18032   0.18377   0.19633
  Beta virt. eigenvalues --    0.20599   0.20959   0.21091   0.21389   0.21450
  Beta virt. eigenvalues --    0.23609   0.25426   0.29083   0.29724   0.30027
  Beta virt. eigenvalues --    0.30528   0.30819   0.32233   0.34877   0.34967
  Beta virt. eigenvalues --    0.35767   0.35856   0.38090   0.40440   0.42204
  Beta virt. eigenvalues --    0.42686   0.43340   0.43460   0.43863   0.44215
  Beta virt. eigenvalues --    0.51940   0.51959   0.56161   0.58545   0.59891
  Beta virt. eigenvalues --    0.61265   0.61709   0.61839   0.63341   0.63479
  Beta virt. eigenvalues --    0.63887   0.64085   0.66882   0.68049   0.68223
  Beta virt. eigenvalues --    0.68499   0.69343   0.71989   0.74391   0.74999
  Beta virt. eigenvalues --    0.75369   0.80406   0.81813   0.82079   0.84672
  Beta virt. eigenvalues --    0.86056   0.86183   0.86480   0.89885   0.92353
  Beta virt. eigenvalues --    0.93184   0.93453   0.94467   0.95134   0.96256
  Beta virt. eigenvalues --    0.96673   0.97135   1.04465   1.07593   1.09623
  Beta virt. eigenvalues --    1.11936   1.12547   1.13870   1.14057   1.15023
  Beta virt. eigenvalues --    1.18637   1.18818   1.20016   1.20702   1.23285
  Beta virt. eigenvalues --    1.25333   1.26316   1.27139   1.29142   1.31209
  Beta virt. eigenvalues --    1.31364   1.32714   1.32795   1.38126   1.39825
  Beta virt. eigenvalues --    1.42014   1.43094   1.43391   1.47609   1.49096
  Beta virt. eigenvalues --    1.49846   1.49917   1.51625   1.51931   1.52273
  Beta virt. eigenvalues --    1.54365   1.55298   1.56194   1.59334   1.59636
  Beta virt. eigenvalues --    1.61516   1.61717   1.62123   1.72590   1.74452
  Beta virt. eigenvalues --    1.74675   1.76839   1.91217   1.92463   1.93385
  Beta virt. eigenvalues --    1.94600   1.97101   2.05172   2.06316   2.06937
  Beta virt. eigenvalues --    2.09512   2.10277   2.10323   2.11549   2.12749
  Beta virt. eigenvalues --    2.14397   2.21865   2.23558   2.24080   2.24230
  Beta virt. eigenvalues --    2.32066   2.36588   2.38402   2.45520   2.49766
  Beta virt. eigenvalues --    2.59292   2.59938   2.60808   2.65060   2.67337
  Beta virt. eigenvalues --    2.68044   2.97905   3.40624   3.41503   3.42759
  Beta virt. eigenvalues --    3.43897   3.45734   3.47581   3.49601   3.51548
  Beta virt. eigenvalues --    3.52294   3.53018   3.53041   3.53482   3.56201
  Beta virt. eigenvalues --    3.57189   3.57752   3.57840   3.58054   3.58585
  Beta virt. eigenvalues --    3.81993   3.82173   3.83417   3.83579   3.84158
  Beta virt. eigenvalues --    3.84505   3.84720   3.84764   3.85198   3.85933
  Beta virt. eigenvalues --    3.86449   3.86748   3.95252   3.95518   3.97033
  Beta virt. eigenvalues --    3.98131   3.98969   4.00422   4.67184   4.79690
  Beta virt. eigenvalues --    4.81495   4.82841   4.82947   4.84712   4.85092
  Beta virt. eigenvalues --    4.91167   4.91385   4.91392   4.91773   4.92720
  Beta virt. eigenvalues --    4.93188   4.99404   5.06100   5.06877   5.12678
  Beta virt. eigenvalues --    5.19451   5.49142   5.49721   5.49906   5.53018
  Beta virt. eigenvalues --    5.55976   5.59803   5.94116   5.94277   5.94894
  Beta virt. eigenvalues --    5.96452   5.99467   5.99604   6.52541   6.53426
  Beta virt. eigenvalues --    6.53502   6.53841   6.54818   6.55187   6.56714
  Beta virt. eigenvalues --    6.57160   6.62000   6.62090   6.62961   6.62990
  Beta virt. eigenvalues --    6.65316   6.66162   6.74449   6.76504   6.88386
  Beta virt. eigenvalues --    6.92596   6.94869   6.95327   6.96090   6.97730
  Beta virt. eigenvalues --    6.99891   7.02198   7.02606   7.11952   7.12507
  Beta virt. eigenvalues --    7.14230   7.15069   7.15398   7.15995   7.32066
  Beta virt. eigenvalues --    7.32251  22.34316  29.42113  29.42195  29.43294
  Beta virt. eigenvalues --   49.74912  49.75497  49.75790  49.76095  49.76674
  Beta virt. eigenvalues --   49.77489 127.35988 682.79613
          Condensed to atoms (all electrons):
               1          2          3          4          5          6
     1  Cr  23.085277   0.122474  -0.001337  -0.001322   0.122506   0.105458
     2  O    0.122474   8.030255  -0.050552  -0.050703   0.021088  -0.071921
     3  O   -0.001337  -0.050552   8.088486   0.012898  -0.050725  -0.037468
     4  O   -0.001322  -0.050703   0.012898   8.088586  -0.050608  -0.037010
     5  O    0.122506   0.021088  -0.050725  -0.050608   8.029934  -0.071774
     6  O    0.105458  -0.071921  -0.037468  -0.037010  -0.071774   7.987836
     7  O    0.105461  -0.071776  -0.036998  -0.037450  -0.071909   0.019510
     8  H   -0.030656   0.265277   0.007247   0.001631  -0.000171   0.001814
     9  H   -0.030598   0.265258   0.001639   0.007306  -0.000176   0.001739
    10  H   -0.011483   0.001161   0.270819   0.000083   0.001177   0.000494
    11  H   -0.011670   0.001153   0.270342   0.000081   0.001181   0.003633
    12  H   -0.011668   0.001179   0.000081   0.270307   0.001169   0.000529
    13  H   -0.011484   0.001165   0.000083   0.270837   0.001167   0.003393
    14  H   -0.030652  -0.000169   0.001625   0.007251   0.265372   0.001678
    15  H   -0.030555  -0.000174   0.007285   0.001628   0.265364   0.001773
    16  H   -0.025125   0.005492   0.002144   0.002093   0.000765   0.273002
    17  H   -0.025370   0.000716   0.002167   0.002115   0.005425   0.272793
    18  H   -0.025157   0.000763   0.002095   0.002146   0.005485  -0.000188
    19  H   -0.025331   0.005412   0.002113   0.002165   0.000716  -0.000178
               7          8          9         10         11         12
     1  Cr   0.105461  -0.030656  -0.030598  -0.011483  -0.011670  -0.011668
     2  O   -0.071776   0.265277   0.265258   0.001161   0.001153   0.001179
     3  O   -0.036998   0.007247   0.001639   0.270819   0.270342   0.000081
     4  O   -0.037450   0.001631   0.007306   0.000083   0.000081   0.270307
     5  O   -0.071909  -0.000171  -0.000176   0.001177   0.001181   0.001169
     6  O    0.019510   0.001814   0.001739   0.000494   0.003633   0.000529
     7  O    7.987617   0.001678   0.001768   0.003390   0.000532   0.003627
     8  H    0.001678   0.392811   0.003189   0.000469   0.000473   0.000373
     9  H    0.001768   0.003189   0.392749   0.000369   0.000371   0.000467
    10  H    0.003390   0.000469   0.000369   0.403712  -0.004278  -0.000050
    11  H    0.000532   0.000473   0.000371  -0.004278   0.404109   0.000060
    12  H    0.003627   0.000373   0.000467  -0.000050   0.000060   0.404116
    13  H    0.000494   0.000373   0.000472   0.000059  -0.000051  -0.004282
    14  H    0.001819   0.000171  -0.000003   0.000374   0.000374   0.000474
    15  H    0.001750  -0.000003   0.000170   0.000471   0.000468   0.000372
    16  H   -0.000190   0.000690   0.000712   0.000383   0.000176   0.000382
    17  H   -0.000178   0.000711   0.000699   0.000388   0.000185   0.000385
    18  H    0.273056   0.000695   0.000704   0.000171   0.000382   0.000176
    19  H    0.272854   0.000741   0.000708   0.000180   0.000384   0.000184
              13         14         15         16         17         18
     1  Cr  -0.011484  -0.030652  -0.030555  -0.025125  -0.025370  -0.025157
     2  O    0.001165  -0.000169  -0.000174   0.005492   0.000716   0.000763
     3  O    0.000083   0.001625   0.007285   0.002144   0.002167   0.002095
     4  O    0.270837   0.007251   0.001628   0.002093   0.002115   0.002146
     5  O    0.001167   0.265372   0.265364   0.000765   0.005425   0.005485
     6  O    0.003393   0.001678   0.001773   0.273002   0.272793  -0.000188
     7  O    0.000494   0.001819   0.001750  -0.000190  -0.000178   0.273056
     8  H    0.000373   0.000171  -0.000003   0.000690   0.000711   0.000695
     9  H    0.000472  -0.000003   0.000170   0.000712   0.000699   0.000704
    10  H    0.000059   0.000374   0.000471   0.000383   0.000388   0.000171
    11  H   -0.000051   0.000374   0.000468   0.000176   0.000185   0.000382
    12  H   -0.004282   0.000474   0.000372   0.000382   0.000385   0.000176
    13  H    0.403645   0.000471   0.000370   0.000171   0.000180   0.000384
    14  H    0.000471   0.392825   0.003149   0.000695   0.000739   0.000690
    15  H    0.000370   0.003149   0.392660   0.000703   0.000706   0.000712
    16  H    0.000171   0.000695   0.000703   0.395004  -0.001199   0.000134
    17  H    0.000180   0.000739   0.000706  -0.001199   0.395095  -0.000034
    18  H    0.000384   0.000690   0.000712   0.000134  -0.000034   0.395003
    19  H    0.000388   0.000710   0.000698  -0.000033   0.000136  -0.001222
              19
     1  Cr  -0.025331
     2  O    0.005412
     3  O    0.002113
     4  O    0.002165
     5  O    0.000716
     6  O   -0.000178
     7  O    0.272854
     8  H    0.000741
     9  H    0.000708
    10  H    0.000180
    11  H    0.000384
    12  H    0.000184
    13  H    0.000388
    14  H    0.000710
    15  H    0.000698
    16  H   -0.000033
    17  H    0.000136
    18  H   -0.001222
    19  H    0.395026
          Atomic-Atomic Spin Densities.
               1          2          3          4          5          6
     1  Cr   4.267152  -0.021553  -0.100873  -0.100868  -0.021550  -0.020234
     2  O   -0.021553   0.016727  -0.010999  -0.010930   0.000191   0.013759
     3  O   -0.100873  -0.010999   0.126820   0.005177  -0.010931  -0.007350
     4  O   -0.100868  -0.010930   0.005177   0.126803  -0.010997  -0.007395
     5  O   -0.021550   0.000191  -0.010931  -0.010997   0.016742   0.013667
     6  O   -0.020234   0.013759  -0.007350  -0.007395   0.013667   0.003954
     7  O   -0.020256   0.013666  -0.007392  -0.007343   0.013756  -0.001415
     8  H    0.000174   0.000124   0.001042   0.000649  -0.000046  -0.000435
     9  H    0.000011   0.000035   0.000645   0.001017  -0.000040  -0.000451
    10  H    0.006778   0.000439  -0.006374  -0.000051   0.000426   0.000372
    11  H    0.006847   0.000478  -0.006634  -0.000054   0.000446  -0.000120
    12  H    0.006854   0.000446  -0.000055  -0.006631   0.000478   0.000361
    13  H    0.006774   0.000426  -0.000050  -0.006373   0.000439  -0.000119
    14  H    0.000178  -0.000044   0.000648   0.001035   0.000130  -0.000399
    15  H    0.000016  -0.000040   0.001009   0.000645   0.000049  -0.000418
    16  H   -0.000018  -0.001751   0.001003   0.001008  -0.000316   0.001409
    17  H   -0.000132  -0.000291   0.001010   0.000999  -0.001750   0.001405
    18  H   -0.000019  -0.000316   0.001009   0.001004  -0.001751  -0.000041
    19  H   -0.000132  -0.001748   0.000998   0.001008  -0.000290  -0.000048
               7          8          9         10         11         12
     1  Cr  -0.020256   0.000174   0.000011   0.006778   0.006847   0.006854
     2  O    0.013666   0.000124   0.000035   0.000439   0.000478   0.000446
     3  O   -0.007392   0.001042   0.000645  -0.006374  -0.006634  -0.000055
     4  O   -0.007343   0.000649   0.001017  -0.000051  -0.000054  -0.006631
     5  O    0.013756  -0.000046  -0.000040   0.000426   0.000446   0.000478
     6  O   -0.001415  -0.000435  -0.000451   0.000372  -0.000120   0.000361
     7  O    0.003973  -0.000400  -0.000419  -0.000117   0.000362  -0.000120
     8  H   -0.000400   0.000605  -0.000255  -0.000168  -0.000166  -0.000027
     9  H   -0.000419  -0.000255   0.000806  -0.000024  -0.000024  -0.000162
    10  H   -0.000117  -0.000168  -0.000024   0.002801   0.000847  -0.000025
    11  H    0.000362  -0.000166  -0.000024   0.000847   0.002968   0.000011
    12  H   -0.000120  -0.000027  -0.000162  -0.000025   0.000011   0.002963
    13  H    0.000372  -0.000026  -0.000157   0.000011  -0.000025   0.000846
    14  H   -0.000432   0.000013  -0.000064  -0.000026  -0.000027  -0.000166
    15  H   -0.000450  -0.000064   0.000015  -0.000156  -0.000162  -0.000024
    16  H   -0.000041  -0.000048  -0.000039  -0.000046  -0.000150  -0.000044
    17  H   -0.000048  -0.000016  -0.000009  -0.000044  -0.000156  -0.000045
    18  H    0.001399  -0.000013  -0.000011  -0.000153  -0.000044  -0.000150
    19  H    0.001407  -0.000056  -0.000044  -0.000145  -0.000045  -0.000156
              13         14         15         16         17         18
     1  Cr   0.006774   0.000178   0.000016  -0.000018  -0.000132  -0.000019
     2  O    0.000426  -0.000044  -0.000040  -0.001751  -0.000291  -0.000316
     3  O   -0.000050   0.000648   0.001009   0.001003   0.001010   0.001009
     4  O   -0.006373   0.001035   0.000645   0.001008   0.000999   0.001004
     5  O    0.000439   0.000130   0.000049  -0.000316  -0.001750  -0.001751
     6  O   -0.000119  -0.000399  -0.000418   0.001409   0.001405  -0.000041
     7  O    0.000372  -0.000432  -0.000450  -0.000041  -0.000048   0.001399
     8  H   -0.000026   0.000013  -0.000064  -0.000048  -0.000016  -0.000013
     9  H   -0.000157  -0.000064   0.000015  -0.000039  -0.000009  -0.000011
    10  H    0.000011  -0.000026  -0.000156  -0.000046  -0.000044  -0.000153
    11  H   -0.000025  -0.000027  -0.000162  -0.000150  -0.000156  -0.000044
    12  H    0.000846  -0.000166  -0.000024  -0.000044  -0.000045  -0.000150
    13  H    0.002804  -0.000168  -0.000024  -0.000153  -0.000145  -0.000046
    14  H   -0.000168   0.000601  -0.000256  -0.000013  -0.000056  -0.000048
    15  H   -0.000024  -0.000256   0.000797  -0.000012  -0.000044  -0.000039
    16  H   -0.000153  -0.000013  -0.000012   0.000073  -0.000199   0.000009
    17  H   -0.000145  -0.000056  -0.000044  -0.000199   0.000093  -0.000041
    18  H   -0.000046  -0.000048  -0.000039   0.000009  -0.000041   0.000077
    19  H   -0.000044  -0.000016  -0.000009  -0.000041   0.000008  -0.000198
              19
     1  Cr  -0.000132
     2  O   -0.001748
     3  O    0.000998
     4  O    0.001008
     5  O   -0.000290
     6  O   -0.000048
     7  O    0.001407
     8  H   -0.000056
     9  H   -0.000044
    10  H   -0.000145
    11  H   -0.000045
    12  H   -0.000156
    13  H   -0.000044
    14  H   -0.000016
    15  H   -0.000009
    16  H   -0.000041
    17  H    0.000008
    18  H   -0.000198
    19  H    0.000088
 Mulliken charges and spin densities:
               1          2
     1  Cr   0.731232   4.009150
     2  O   -0.476098  -0.001381
     3  O   -0.491945  -0.011299
     4  O   -0.492034  -0.011299
     5  O   -0.475985  -0.001347
     6  O   -0.455114  -0.003496
     7  O   -0.455056  -0.003497
     8  H    0.352487   0.000888
     9  H    0.352459   0.000832
    10  H    0.332110   0.004344
    11  H    0.332095   0.004351
    12  H    0.332120   0.004353
    13  H    0.332166   0.004343
    14  H    0.352408   0.000890
    15  H    0.352456   0.000834
    16  H    0.344004   0.000632
    17  H    0.344341   0.000539
    18  H    0.344006   0.000626
    19  H    0.344348   0.000538
 Sum of Mulliken charges =   2.00000   4.00000
 Mulliken charges and spin densities with hydrogens summed into heavy atoms:
               1          2
     1  Cr   0.731232   4.009150
     2  O    0.228848   0.000338
     3  O    0.172260  -0.002603
     4  O    0.172253  -0.002603
     5  O    0.228879   0.000377
     6  O    0.233230  -0.002325
     7  O    0.233298  -0.002334
 Electronic spatial extent (au):  <R**2>=           1198.9799
 Charge=              2.0000 electrons
 Dipole moment (field-independent basis, Debye):
    X=              0.0016    Y=              0.0035    Z=              0.0031  Tot=              0.0049
 Quadrupole moment (field-independent basis, Debye-Ang):
   XX=            -15.0189   YY=            -14.9137   ZZ=            -14.7581
   XY=             -0.0015   XZ=              0.0080   YZ=              0.0379
 Traceless Quadrupole moment (field-independent basis, Debye-Ang):
   XX=             -0.1220   YY=             -0.0168   ZZ=              0.1388
   XY=             -0.0015   XZ=              0.0080   YZ=              0.0379
 Octapole moment (field-independent basis, Debye-Ang**2):
  XXX=             -0.0052  YYY=              0.0109  ZZZ=              0.0373  XYY=              0.0106
  XXY=              0.0095  XXZ=             -0.0153  XZZ=             -0.0015  YZZ=              0.0192
  YYZ=              0.0096  XYZ=              0.0066
 Hexadecapole moment (field-independent basis, Debye-Ang**3):
 XXXX=           -121.6105 YYYY=           -112.5773 ZZZZ=           -112.7870 XXXY=              4.0219
 XXXZ=             -1.2098 YYYX=             -2.9221 YYYZ=            -27.3871 ZZZX=              0.6031
 ZZZY=             27.3100 XXYY=           -111.3640 XXZZ=           -117.8216 YYZZ=            -93.2386
 XXYZ=             -0.9292 YYXZ=              0.3788 ZZXY=             -0.1161
 N-N= 6.189529243690D+02 E-N=-4.775641993053D+03  KE= 1.500145802491D+03
                          Isotropic Fermi Contact Couplings
        Atom                 a.u.       MegaHertz       Gauss      10(-4) cm-1
     1  Cr(53)            -1.04584      66.19175      23.61886      22.07919
     2  O(17)             -0.00208       0.31449       0.11222       0.10490
     3  O(17)              0.10288     -15.59100      -5.56326      -5.20060
     4  O(17)              0.10287     -15.59015      -5.56295      -5.20032
     5  O(17)             -0.00200       0.30248       0.10793       0.10090
     6  O(17)             -0.00114       0.17343       0.06188       0.05785
     7  O(17)             -0.00117       0.17682       0.06309       0.05898
     8  H(1)               0.00089       0.99326       0.35442       0.33131
     9  H(1)               0.00089       0.99815       0.35617       0.33295
    10  H(1)               0.00113       1.26081       0.44989       0.42056
    11  H(1)               0.00112       1.24888       0.44563       0.41658
    12  H(1)               0.00112       1.24791       0.44528       0.41626
    13  H(1)               0.00113       1.26143       0.45011       0.42077
    14  H(1)               0.00089       0.99103       0.35363       0.33057
    15  H(1)               0.00089       0.99592       0.35537       0.33220
    16  H(1)               0.00081       0.90978       0.32463       0.30347
    17  H(1)               0.00079       0.87867       0.31353       0.29309
    18  H(1)               0.00081       0.90824       0.32408       0.30296
    19  H(1)               0.00079       0.87901       0.31365       0.29320
 --------------------------------------------------------
       Center         ----  Spin Dipole Couplings  ----
                      3XX-RR        3YY-RR        3ZZ-RR
 --------------------------------------------------------
     1   Atom        1.627892     -0.807014     -0.820879
     2   Atom       -0.068988      0.008205      0.060783
     3   Atom        0.135008     -0.091644     -0.043363
     4   Atom        0.135014     -0.091635     -0.043379
     5   Atom       -0.068994      0.008182      0.060812
     6   Atom        0.010159      0.057857     -0.068016
     7   Atom        0.010213      0.057827     -0.068041
     8   Atom       -0.019668     -0.025198      0.044866
     9   Atom       -0.019414     -0.025037      0.044451
    10   Atom        0.038718     -0.014605     -0.024113
    11   Atom        0.039957     -0.015690     -0.024267
    12   Atom        0.039969     -0.015698     -0.024271
    13   Atom        0.038700     -0.014593     -0.024106
    14   Atom       -0.019656     -0.025199      0.044856
    15   Atom       -0.019416     -0.025028      0.044444
    16   Atom       -0.025833      0.050560     -0.024728
    17   Atom       -0.025811      0.037897     -0.012085
    18   Atom       -0.025836      0.050564     -0.024728
    19   Atom       -0.025814      0.037905     -0.012091
 --------------------------------------------------------
                        XY            XZ            YZ
 --------------------------------------------------------
     1   Atom        0.043933     -0.013376     -0.003214
     2   Atom       -0.001014      0.000566      0.006957
     3   Atom        0.002904     -0.000856      0.007111
     4   Atom        0.002920     -0.001228      0.007105
     5   Atom       -0.000962      0.000544      0.006995
     6   Atom       -0.001046      0.000095     -0.018563
     7   Atom       -0.001029      0.000101     -0.018561
     8   Atom       -0.003052     -0.021560      0.010108
     9   Atom        0.003319      0.021936      0.010699
    10   Atom        0.019468     -0.002944     -0.001450
    11   Atom       -0.018039      0.002485     -0.001229
    12   Atom       -0.018031      0.002428     -0.001217
    13   Atom        0.019475     -0.003001     -0.001464
    14   Atom       -0.003056     -0.021576      0.010113
    15   Atom        0.003306      0.021903      0.010667
    16   Atom       -0.001180     -0.000195      0.011940
    17   Atom       -0.001173      0.000556     -0.030552
    18   Atom       -0.001191     -0.000197      0.011953
    19   Atom       -0.001178      0.000558     -0.030553
 --------------------------------------------------------


 ---------------------------------------------------------------------------------
              Anisotropic Spin Dipole Couplings in Principal Axis System
 ---------------------------------------------------------------------------------

       Atom             a.u.   MegaHertz   Gauss  10(-4) cm-1        Axes

              Baa    -0.8216    24.828     8.859     8.282  0.0016  0.2108  0.9775
     1 Cr(53) Bbb    -0.8072    24.392     8.704     8.136 -0.0188  0.9774 -0.2108
              Bcc     1.6288   -49.220   -17.563   -16.418  0.9998  0.0180 -0.0055
 
              Baa    -0.0690     4.993     1.782     1.666  0.9999  0.0136 -0.0051
     2 O(17)  Bbb     0.0073    -0.529    -0.189    -0.177 -0.0141  0.9916 -0.1289
              Bcc     0.0617    -4.464    -1.593    -1.489  0.0033  0.1289  0.9916
 
              Baa    -0.0927     6.708     2.394     2.238 -0.0132  0.9897 -0.1428
     3 O(17)  Bbb    -0.0423     3.064     1.093     1.022  0.0024  0.1429  0.9897
              Bcc     0.1350    -9.772    -3.487    -3.260  0.9999  0.0127 -0.0043
 
              Baa    -0.0927     6.708     2.394     2.237 -0.0135  0.9896 -0.1429
     4 O(17)  Bbb    -0.0424     3.065     1.094     1.022  0.0045  0.1430  0.9897
              Bcc     0.1351    -9.773    -3.487    -3.260  0.9999  0.0127 -0.0064
 
              Baa    -0.0690     4.993     1.782     1.666  0.9999  0.0129 -0.0049
     5 O(17)  Bbb     0.0073    -0.527    -0.188    -0.176 -0.0134  0.9915 -0.1294
              Bcc     0.0617    -4.467    -1.594    -1.490  0.0032  0.1295  0.9916
 
              Baa    -0.0707     5.116     1.825     1.706  0.0007  0.1429  0.9897
     6 O(17)  Bbb     0.0101    -0.734    -0.262    -0.245  0.9998  0.0205 -0.0036
              Bcc     0.0606    -4.382    -1.564    -1.462 -0.0208  0.9895 -0.1429
 
              Baa    -0.0707     5.117     1.826     1.707  0.0006  0.1429  0.9897
     7 O(17)  Bbb     0.0102    -0.737    -0.263    -0.246  0.9998  0.0202 -0.0035
              Bcc     0.0605    -4.380    -1.563    -1.461 -0.0205  0.9895 -0.1429
 
              Baa    -0.0266   -14.207    -5.069    -4.739  0.0088  0.9905 -0.1374
     8 H(1)   Bbb    -0.0262   -13.983    -4.989    -4.664  0.9577  0.0312  0.2861
              Bcc     0.0528    28.190    10.059     9.403 -0.2876  0.1341  0.9483
 
              Baa    -0.0266   -14.218    -5.073    -4.743 -0.0386  0.9898 -0.1370
     9 H(1)   Bbb    -0.0262   -13.991    -4.992    -4.667  0.9552 -0.0037 -0.2959
              Bcc     0.0529    28.209    10.066     9.410  0.2934  0.1423  0.9453
 
              Baa    -0.0243   -12.981    -4.632    -4.330  0.0017  0.1442  0.9896
    10 H(1)   Bbb    -0.0209   -11.147    -3.977    -3.718 -0.3136  0.9397 -0.1364
              Bcc     0.0452    24.128     8.609     8.048  0.9495  0.3101 -0.0468
 
              Baa    -0.0244   -13.040    -4.653    -4.350  0.0018  0.1427  0.9898
    11 H(1)   Bbb    -0.0210   -11.183    -3.991    -3.730  0.2864  0.9482 -0.1372
              Bcc     0.0454    24.223     8.643     8.080  0.9581 -0.2837  0.0392
 
              Baa    -0.0244   -13.040    -4.653    -4.350  0.0030  0.1441  0.9896
    12 H(1)   Bbb    -0.0210   -11.184    -3.991    -3.731  0.2861  0.9481 -0.1389
              Bcc     0.0454    24.224     8.644     8.080  0.9582 -0.2835  0.0383
 
              Baa    -0.0243   -12.980    -4.631    -4.329  0.0030  0.1429  0.9897
    13 H(1)   Bbb    -0.0209   -11.146    -3.977    -3.718 -0.3139  0.9398 -0.1347
              Bcc     0.0452    24.125     8.608     8.047  0.9494  0.3103 -0.0477
 
              Baa    -0.0266   -14.209    -5.070    -4.739  0.0080  0.9904 -0.1377
    14 H(1)   Bbb    -0.0262   -13.983    -4.989    -4.664  0.9576  0.0320  0.2862
              Bcc     0.0528    28.191    10.059     9.404 -0.2879  0.1342  0.9482
 
              Baa    -0.0266   -14.208    -5.070    -4.739 -0.0392  0.9899 -0.1365
    15 H(1)   Bbb    -0.0262   -13.983    -4.989    -4.664  0.9553 -0.0029 -0.2957
              Bcc     0.0528    28.191    10.059     9.403  0.2931  0.1420  0.9455
 
              Baa    -0.0266   -14.180    -5.060    -4.730  0.0172 -0.1527  0.9881
    16 H(1)   Bbb    -0.0259   -13.793    -4.922    -4.601  0.9997  0.0177 -0.0147
              Bcc     0.0524    27.973     9.981     9.331 -0.0153  0.9881  0.1530
 
              Baa    -0.0266   -14.174    -5.058    -4.728 -0.0003  0.4283  0.9036
    17 H(1)   Bbb    -0.0258   -13.783    -4.918    -4.598  0.9999  0.0151 -0.0069
              Bcc     0.0524    27.957     9.976     9.326 -0.0166  0.9035 -0.4282
 
              Baa    -0.0266   -14.182    -5.060    -4.731  0.0173 -0.1528  0.9881
    18 H(1)   Bbb    -0.0259   -13.795    -4.922    -4.601  0.9997  0.0179 -0.0147
              Bcc     0.0524    27.977     9.983     9.332 -0.0154  0.9881  0.1531
 
              Baa    -0.0266   -14.176    -5.058    -4.729 -0.0005  0.4282  0.9037
    19 H(1)   Bbb    -0.0258   -13.785    -4.919    -4.598  0.9999  0.0153 -0.0067
              Bcc     0.0524    27.961     9.977     9.327 -0.0167  0.9035 -0.4282
 

 ---------------------------------------------------------------------------------

 Calling FoFJK, ICntrl=      2127 FMM=F ISym2X=0 I1Cent= 0 IOpClX= 1 NMat=1 NMatS=1 NMatT=0.
 ***** Axes restored to original set *****
 -------------------------------------------------------------------
 Center     Atomic                   Forces (Hartrees/Bohr)
 Number     Number              X              Y              Z
 -------------------------------------------------------------------
      1       24          -0.000009629   -0.000005443    0.000050663
      2        8          -0.000040420    0.000016404   -0.000088942
      3        8           0.000138001    0.000012685   -0.000001079
      4        8          -0.000128123   -0.000044236   -0.000017287
      5        8          -0.000016828   -0.000031485    0.000057399
      6        8          -0.000009917   -0.000230734    0.000118985
      7        8           0.000016774    0.000219718   -0.000098732
      8        1           0.000021954   -0.000042090   -0.000000480
      9        1           0.000012831   -0.000048459   -0.000043953
     10        1           0.000030281    0.000004491   -0.000030696
     11        1           0.000049342    0.000029408    0.000038380
     12        1          -0.000039205   -0.000051370   -0.000035182
     13        1          -0.000048879    0.000053507    0.000038673
     14        1           0.000036928    0.000042156    0.000030627
     15        1          -0.000005556    0.000060344    0.000007376
     16        1          -0.000016907   -0.000002544    0.000048308
     17        1          -0.000012666    0.000071669    0.000001293
     18        1           0.000010469   -0.000002689   -0.000066885
     19        1           0.000011547   -0.000051331   -0.000008468
 -------------------------------------------------------------------
 Cartesian Forces:  Max     0.000230734 RMS     0.000063442

 GradGradGradGradGradGradGradGradGradGradGradGradGradGradGradGradGradGrad
 Berny optimization.
 FormGI is forming the generalized inverse of G from B-inverse, IUseBI=4.
 Internal  Forces:  Max     0.000217351 RMS     0.000044284
 Search for a local minimum.
 Step number   1 out of a maximum of  114
 All quantities printed in internal units (Hartrees-Bohrs-Radians)
 Mixed Optimization -- En-DIIS/RFO-DIIS
 Second derivative matrix not updated -- first step.
 ITU=  0
     Eigenvalues ---    0.00230   0.00230   0.00230   0.00230   0.00458
     Eigenvalues ---    0.00472   0.00533   0.00535   0.00550   0.00553
     Eigenvalues ---    0.00686   0.00714   0.05621   0.05622   0.05809
     Eigenvalues ---    0.06536   0.06664   0.06772   0.06965   0.06966
     Eigenvalues ---    0.10995   0.10997   0.11044   0.11051   0.12606
     Eigenvalues ---    0.12852   0.12857   0.16000   0.16000   0.16000
     Eigenvalues ---    0.16000   0.16000   0.16000   0.16000   0.16000
     Eigenvalues ---    0.16000   0.16000   0.16000   0.16000   0.54508
     Eigenvalues ---    0.54521   0.54521   0.54527   0.54601   0.54605
     Eigenvalues ---    0.54607   0.54611   0.54634   0.54635   0.54637
     Eigenvalues ---    0.54648
 RFO step:  Lambda=-2.73976980D-06 EMin= 2.30000000D-03
 Linear search not attempted -- first point.
 Iteration  1 RMS(Cart)=  0.00127998 RMS(Int)=  0.00000149
 Iteration  2 RMS(Cart)=  0.00000151 RMS(Int)=  0.00000002
 Iteration  3 RMS(Cart)=  0.00000000 RMS(Int)=  0.00000002
 Variable       Old X    -DE/DX   Delta X   Delta X   Delta X     New X
                                 (Linear)    (Quad)   (Total)
    R1        3.97604   0.00013   0.00000   0.00120   0.00120   3.97724
    R2        4.39231  -0.00022   0.00000  -0.00312  -0.00312   4.38919
    R3        4.39243  -0.00022   0.00000  -0.00310  -0.00310   4.38933
    R4        3.97653   0.00009   0.00000   0.00086   0.00086   3.97739
    R5        3.98027   0.00016   0.00000   0.00145   0.00145   3.98172
    R6        3.98009   0.00016   0.00000   0.00149   0.00149   3.98158
    R7        1.82272  -0.00002   0.00000  -0.00004  -0.00004   1.82268
    R8        1.82255   0.00004   0.00000   0.00007   0.00007   1.82262
    R9        1.82147  -0.00002   0.00000  -0.00004  -0.00004   1.82142
   R10        1.82158  -0.00004   0.00000  -0.00008  -0.00008   1.82149
   R11        1.82159  -0.00006   0.00000  -0.00010  -0.00010   1.82149
   R12        1.82156  -0.00008   0.00000  -0.00015  -0.00015   1.82141
   R13        1.82260   0.00005   0.00000   0.00008   0.00008   1.82268
   R14        1.82261   0.00001   0.00000   0.00002   0.00002   1.82263
   R15        1.82185  -0.00001   0.00000  -0.00001  -0.00001   1.82183
   R16        1.82183  -0.00007   0.00000  -0.00013  -0.00013   1.82170
   R17        1.82188  -0.00003   0.00000  -0.00005  -0.00005   1.82183
   R18        1.82179  -0.00005   0.00000  -0.00010  -0.00010   1.82169
    A1        1.57202   0.00000   0.00000  -0.00002  -0.00002   1.57199
    A2        1.57082   0.00000   0.00000  -0.00002  -0.00002   1.57080
    A3        1.57074   0.00005   0.00000   0.00039   0.00039   1.57113
    A4        1.57093  -0.00005   0.00000  -0.00041  -0.00041   1.57052
    A5        1.56973   0.00000   0.00000   0.00004   0.00004   1.56977
    A6        1.56688   0.00000   0.00000  -0.00001  -0.00001   1.56688
    A7        1.57471   0.00000   0.00000  -0.00001  -0.00001   1.57470
    A8        1.57062   0.00000   0.00000   0.00001   0.00001   1.57062
    A9        1.57437   0.00000   0.00000   0.00004   0.00004   1.57441
   A10        1.56722   0.00000   0.00000  -0.00002  -0.00002   1.56720
   A11        1.57108  -0.00005   0.00000  -0.00039  -0.00039   1.57069
   A12        1.57043   0.00005   0.00000   0.00041   0.00041   1.57084
   A13        2.19999   0.00000   0.00000   0.00003   0.00003   2.20002
   A14        2.19880   0.00002   0.00000   0.00013   0.00013   2.19892
   A15        1.88439  -0.00002   0.00000  -0.00015  -0.00015   1.88424
   A16        2.22316   0.00000   0.00000   0.00001   0.00001   2.22317
   A17        2.21438  -0.00003   0.00000  -0.00019  -0.00019   2.21419
   A18        1.84564   0.00003   0.00000   0.00018   0.00018   1.84583
   A19        2.21419  -0.00002   0.00000  -0.00011  -0.00011   2.21408
   A20        2.22315   0.00001   0.00000   0.00008   0.00008   2.22324
   A21        1.84584   0.00000   0.00000   0.00002   0.00002   1.84587
   A22        2.19951   0.00001   0.00000   0.00005   0.00005   2.19955
   A23        2.19938   0.00000   0.00000  -0.00003  -0.00003   2.19936
   A24        1.88429   0.00000   0.00000  -0.00002  -0.00002   1.88428
   A25        2.20252   0.00000   0.00000   0.00000   0.00000   2.20252
   A26        2.20368  -0.00002   0.00000  -0.00010  -0.00010   2.20358
   A27        1.87687   0.00002   0.00000   0.00011   0.00011   1.87698
   A28        2.20241   0.00000   0.00000   0.00000   0.00000   2.20241
   A29        2.20365  -0.00001   0.00000  -0.00004  -0.00004   2.20361
   A30        1.87702   0.00001   0.00000   0.00003   0.00003   1.87706
   A31        3.14175   0.00000   0.00000   0.00001   0.00001   3.14176
   A32        3.14284   0.00000   0.00000  -0.00004  -0.00004   3.14279
   A33        3.14167   0.00000   0.00000  -0.00002  -0.00002   3.14165
   A34        3.14183   0.00000   0.00000  -0.00001  -0.00001   3.14182
   A35        3.14193   0.00000   0.00000  -0.00003  -0.00003   3.14190
   A36        3.14160   0.00000   0.00000  -0.00002  -0.00002   3.14158
    D1       -0.00113   0.00000   0.00000   0.00011   0.00011  -0.00103
    D2       -3.14146   0.00000   0.00000  -0.00010  -0.00010  -3.14156
    D3        3.14012   0.00000   0.00000   0.00014   0.00014   3.14026
    D4       -0.00020   0.00000   0.00000  -0.00007  -0.00007  -0.00027
    D5        1.56575   0.00000   0.00000   0.00010   0.00010   1.56585
    D6       -1.57458   0.00000   0.00000  -0.00011  -0.00011  -1.57468
    D7       -1.57585   0.00000   0.00000   0.00012   0.00012  -1.57573
    D8        1.56701   0.00000   0.00000  -0.00009  -0.00009   1.56692
    D9        3.14128   0.00000   0.00000   0.00006   0.00006   3.14133
   D10        0.00078   0.00000   0.00000  -0.00028  -0.00028   0.00050
   D11        0.00078   0.00000   0.00000  -0.00014  -0.00014   0.00064
   D12       -3.13972   0.00000   0.00000  -0.00048  -0.00048  -3.14020
   D13       -1.57069   0.00003   0.00000   0.00350   0.00350  -1.56719
   D14        1.56876   0.00003   0.00000   0.00356   0.00356   1.57232
   D15        1.57067   0.00003   0.00000   0.00350   0.00350   1.57417
   D16       -1.57307   0.00003   0.00000   0.00357   0.00357  -1.56950
   D17       -3.14142  -0.00002   0.00000   0.00311   0.00311  -3.13832
   D18       -0.00198  -0.00002   0.00000   0.00317   0.00317   0.00120
   D19        0.00025  -0.00002   0.00000   0.00309   0.00309   0.00333
   D20        3.13969  -0.00002   0.00000   0.00315   0.00315  -3.14034
   D21        0.00062   0.00000   0.00000   0.00036   0.00036   0.00098
   D22       -3.14106   0.00000   0.00000  -0.00067  -0.00067   3.14145
   D23        3.14101   0.00000   0.00000   0.00039   0.00039   3.14140
   D24       -0.00067   0.00000   0.00000  -0.00064  -0.00064  -0.00132
   D25        1.57131  -0.00003   0.00000  -0.00313  -0.00313   1.56818
   D26       -1.56943  -0.00003   0.00000  -0.00420  -0.00420  -1.57363
   D27       -1.57004  -0.00003   0.00000  -0.00314  -0.00314  -1.57318
   D28        1.57240  -0.00004   0.00000  -0.00421  -0.00421   1.56819
   D29       -3.14113   0.00002   0.00000  -0.00275  -0.00275   3.13931
   D30        0.00132   0.00001   0.00000  -0.00382  -0.00382  -0.00250
   D31        0.00039   0.00002   0.00000  -0.00272  -0.00272  -0.00234
   D32       -3.14035   0.00002   0.00000  -0.00379  -0.00379   3.13904
   D33       -3.14095   0.00000   0.00000  -0.00004  -0.00004  -3.14099
   D34        0.00191   0.00000   0.00000  -0.00038  -0.00038   0.00153
   D35        0.00098   0.00000   0.00000  -0.00007  -0.00007   0.00091
   D36       -3.13934   0.00000   0.00000  -0.00041  -0.00041  -3.13976
   D37        1.57535   0.00000   0.00000  -0.00004  -0.00004   1.57532
   D38       -1.56497   0.00000   0.00000  -0.00038  -0.00038  -1.56535
   D39       -1.56623   0.00000   0.00000  -0.00005  -0.00005  -1.56629
   D40        1.57663   0.00000   0.00000  -0.00040  -0.00040   1.57623
   D41        0.00841   0.00000   0.00000  -0.00012  -0.00012   0.00830
   D42        3.13201   0.00000   0.00000   0.00002   0.00002   3.13202
   D43        1.58043   0.00000   0.00000  -0.00014  -0.00014   1.58029
   D44       -1.57916   0.00000   0.00000   0.00000   0.00000  -1.57917
   D45       -1.56241   0.00000   0.00000  -0.00010  -0.00010  -1.56250
   D46        1.56118   0.00000   0.00000   0.00004   0.00004   1.56122
   D47       -3.13303   0.00000   0.00000  -0.00010  -0.00010  -3.13313
   D48       -0.00943   0.00000   0.00000   0.00003   0.00003  -0.00940
   D49       -3.14110   0.00000   0.00000  -0.00029  -0.00029  -3.14139
   D50        0.01778   0.00000   0.00000  -0.00007  -0.00007   0.01771
   D51       -0.01751   0.00000   0.00000  -0.00014  -0.00014  -0.01765
   D52        3.14136   0.00000   0.00000   0.00008   0.00008   3.14144
   D53        3.13367   0.00000   0.00000  -0.00016  -0.00016   3.13351
   D54        0.00936   0.00000   0.00000   0.00005   0.00005   0.00941
   D55        1.56165   0.00000   0.00000  -0.00014  -0.00014   1.56152
   D56       -1.56265   0.00000   0.00000   0.00007   0.00007  -1.56259
   D57       -1.57870   0.00000   0.00000  -0.00018  -0.00018  -1.57888
   D58        1.58018   0.00000   0.00000   0.00003   0.00003   1.58021
   D59       -0.00808   0.00000   0.00000  -0.00017  -0.00017  -0.00825
   D60       -3.13239   0.00000   0.00000   0.00003   0.00003  -3.13235
         Item               Value     Threshold  Converged?
 Maximum Force            0.000217     0.000450     YES
 RMS     Force            0.000044     0.000300     YES
 Maximum Displacement     0.005438     0.001800     NO 
 RMS     Displacement     0.001280     0.001200     NO 
 Predicted change in Energy=-1.369884D-06
 GradGradGradGradGradGradGradGradGradGradGradGradGradGradGradGradGradGrad

                          Input orientation:                          
 ---------------------------------------------------------------------
 Center     Atomic      Atomic             Coordinates (Angstroms)
 Number     Number       Type             X           Y           Z
 ---------------------------------------------------------------------
      1         24           0       -0.000054    0.000053   -0.000357
      2          8           0       -0.006591    0.026895   -2.104842
      3          8           0       -2.322651    0.013371    0.009809
      4          8           0        2.322624   -0.014015   -0.007743
      5          8           0        0.006845   -0.026308    2.104211
      6          8           0       -0.020504   -2.106724   -0.026462
      7          8           0        0.020370    2.106749    0.025866
      8          1           0       -0.788143    0.037817   -2.669962
      9          1           0        0.772028    0.029611   -2.674039
     10          1           0       -2.903342    0.782605    0.019362
     11          1           0       -2.905349   -0.754428    0.003694
     12          1           0        2.905471    0.753669   -0.001776
     13          1           0        2.903128   -0.783387   -0.017188
     14          1           0        0.788756   -0.037427    2.668831
     15          1           0       -0.771439   -0.030120    2.673863
     16          1           0       -0.021993   -2.666376   -0.811462
     17          1           0       -0.016182   -2.686478    0.743708
     18          1           0        0.022017    2.666265    0.810962
     19          1           0        0.016168    2.686573   -0.744249
 ---------------------------------------------------------------------
                    Distance matrix (angstroms):
                    1          2          3          4          5
     1  Cr   0.000000
     2  O    2.104667   0.000000
     3  O    2.322657   3.136250   0.000000
     4  O    2.322732   3.134444   4.645388   0.000000
     5  O    2.104744   4.209411   3.132833   3.134220   0.000000
     6  O    2.107038   2.978622   3.129856   3.141660   2.978027
     7  O    2.106959   2.977657   3.142011   3.130358   2.978193
     8  H    2.783757   0.964522   3.088120   4.094748   4.840335
     9  H    2.783085   0.964490   4.096381   3.084702   4.839453
    10  H    3.006968   3.670764   0.963855   5.286403   3.670167
    11  H    3.001666   3.668677   0.963893   5.280156   3.663769
    12  H    3.001669   3.664859   5.280287   0.963891   3.666822
    13  H    3.007080   3.671692   5.286239   0.963851   3.669055
    14  H    2.783557   4.839904   4.093144   3.085020   0.964523
    15  H    2.783415   4.839862   3.083072   4.094447   0.964492
    16  H    2.787152   2.987772   3.626094   3.630181   3.933439
    17  H    2.787712   3.934047   3.625960   3.629979   2.987976
    18  H    2.787008   3.933066   3.630036   3.625875   2.987085
    19  H    2.787657   2.987577   3.631072   3.627031   3.933641
                    6          7          8          9         10
     6  O    0.000000
     7  O    4.213997   0.000000
     8  H    3.489473   3.493088   0.000000
     9  H    3.493093   3.488407   1.560197   0.000000
    10  H    4.081799   3.209594   3.501606   4.618415   0.000000
    11  H    3.186212   4.092268   3.501236   4.616067   1.537114
    12  H    4.091917   3.186754   4.612423   3.495258   5.808924
    13  H    3.209195   4.082283   4.619206   3.501630   6.014048
    14  H    3.493064   3.489007   5.567314   5.343317   4.617762
    15  H    3.488258   3.493574   5.344283   5.566500   3.500273
    16  H    0.964073   4.846199   3.369521   3.371648   4.570330
    17  H    0.964000   4.846820   4.435183   4.436148   4.571095
    18  H    4.846083   0.964073   4.436433   4.433926   3.568268
    19  H    4.846881   0.963997   3.372120   3.369697   3.568155
                   11         12         13         14         15
    11  H    0.000000
    12  H    6.003334   0.000000
    13  H    5.808587   1.537134   0.000000
    14  H    4.611232   3.498351   3.498818   0.000000
    15  H    3.493995   4.614438   4.616451   1.560220   0.000000
    16  H    3.554401   4.574095   3.568313   4.436342   4.433848
    17  H    3.553551   4.574539   3.566944   3.372164   3.369295
    18  H    4.574090   3.554276   4.570201   3.368904   3.372012
    19  H    4.575496   3.554639   4.572065   4.434657   4.436692
                   16         17         18         19
    16  H    0.000000
    17  H    1.555311   0.000000
    18  H    5.574160   5.353302   0.000000
    19  H    5.353507   5.575368   1.555355   0.000000
 Stoichiometry    CrH12O6(2+,5)
 Framework group  C1[X(CrH12O6)]
 Deg. of freedom    51
 Full point group                 C1      NOp   1
 Largest Abelian subgroup         C1      NOp   1
 Largest concise Abelian subgroup C1      NOp   1
                         Standard orientation:                         
 ---------------------------------------------------------------------
 Center     Atomic      Atomic             Coordinates (Angstroms)
 Number     Number       Type             X           Y           Z
 ---------------------------------------------------------------------
      1         24           0       -0.000058   -0.000094    0.000349
      2          8           0        0.005874   -0.221231    2.093357
      3          8           0       -2.322427   -0.036669    0.000270
      4          8           0        2.322369    0.037485   -0.002271
      5          8           0       -0.005624    0.220575   -2.092788
      6          8           0       -0.041316    2.094941    0.221110
      7          8           0        0.041172   -2.095038   -0.220522
      8          1           0       -0.772241   -0.292454    2.658837
      9          1           0        0.787768   -0.268368    2.656082
[...]
     9  H    0.000473  -0.000003   0.000172   0.000723   0.000699   0.000703
    10  H    0.000060   0.000376   0.000472   0.000385   0.000388   0.000179
    11  H   -0.000050   0.000376   0.000472   0.000184   0.000190   0.000382
    12  H   -0.004205   0.000469   0.000377   0.000382   0.000385   0.000184
    13  H    0.403425   0.000472   0.000376   0.000179   0.000185   0.000385
    14  H    0.000472   0.392675   0.003100   0.000691   0.000736   0.000695
    15  H    0.000376   0.003100   0.392733   0.000702   0.000712   0.000722
    16  H    0.000179   0.000691   0.000702   0.394898  -0.001251   0.000134
    17  H    0.000185   0.000736   0.000712  -0.001251   0.395307  -0.000031
    18  H    0.000385   0.000695   0.000722   0.000134  -0.000031   0.394923
    19  H    0.000387   0.000707   0.000698  -0.000031   0.000136  -0.001266
              19
     1  Cr  -0.025185
     2  O    0.005364
     3  O    0.002132
     4  O    0.002181
     5  O    0.000704
     6  O   -0.000173
     7  O    0.272863
     8  H    0.000738
     9  H    0.000714
    10  H    0.000184
    11  H    0.000384
    12  H    0.000189
    13  H    0.000387
    14  H    0.000707
    15  H    0.000698
    16  H   -0.000031
    17  H    0.000136
    18  H   -0.001266
    19  H    0.395241
          Atomic-Atomic Spin Densities.
               1          2          3          4          5          6
     1  Cr   4.265866  -0.021818  -0.101264  -0.101251  -0.021819  -0.019511
     2  O   -0.021818   0.016823  -0.011144  -0.011219   0.000332   0.013728
     3  O   -0.101264  -0.011144   0.128897   0.005262  -0.011226  -0.007549
     4  O   -0.101251  -0.011219   0.005262   0.128860  -0.011148  -0.007526
     5  O   -0.021819   0.000332  -0.011226  -0.011148   0.016858   0.013492
     6  O   -0.019511   0.013728  -0.007549  -0.007526   0.013492   0.003355
     7  O   -0.019521   0.013490  -0.007526  -0.007543   0.013733  -0.001326
     8  H    0.000238   0.000112   0.000966   0.000631  -0.000041  -0.000477
     9  H    0.000314   0.000159   0.000636   0.000988  -0.000043  -0.000474
    10  H    0.006947   0.000444  -0.006455  -0.000058   0.000451   0.000371
    11  H    0.006997   0.000468  -0.006892  -0.000061   0.000494  -0.000061
    12  H    0.007000   0.000494  -0.000062  -0.006892   0.000468   0.000361
    13  H    0.006945   0.000450  -0.000057  -0.006448   0.000444  -0.000089
    14  H    0.000238  -0.000039   0.000631   0.000959   0.000118  -0.000400
    15  H    0.000313  -0.000043   0.000981   0.000636   0.000170  -0.000393
    16  H   -0.000150  -0.001739   0.000990   0.000976  -0.000313   0.001283
    17  H    0.000176  -0.000284   0.000987   0.000974  -0.001652   0.001450
    18  H   -0.000149  -0.000313   0.000977   0.000990  -0.001742  -0.000042
    19  H    0.000178  -0.001649   0.000973   0.000986  -0.000284  -0.000052
               7          8          9         10         11         12
     1  Cr  -0.019521   0.000238   0.000314   0.006947   0.006997   0.007000
     2  O    0.013490   0.000112   0.000159   0.000444   0.000468   0.000494
     3  O   -0.007526   0.000966   0.000636  -0.006455  -0.006892  -0.000062
     4  O   -0.007543   0.000631   0.000988  -0.000058  -0.000061  -0.006892
     5  O    0.013733  -0.000041  -0.000043   0.000451   0.000494   0.000468
     6  O   -0.001326  -0.000477  -0.000474   0.000371  -0.000061   0.000361
     7  O    0.003366  -0.000402  -0.000394  -0.000087   0.000362  -0.000061
     8  H   -0.000402   0.000710  -0.000317  -0.000163  -0.000168  -0.000028
     9  H   -0.000394  -0.000317   0.000603  -0.000028  -0.000028  -0.000169
    10  H   -0.000087  -0.000163  -0.000028   0.002824   0.000858  -0.000026
    11  H    0.000362  -0.000168  -0.000028   0.000858   0.003196   0.000011
    12  H   -0.000061  -0.000028  -0.000169  -0.000026   0.000011   0.003196
    13  H    0.000371  -0.000026  -0.000174   0.000011  -0.000026   0.000857
    14  H   -0.000475   0.000012  -0.000067  -0.000026  -0.000028  -0.000168
    15  H   -0.000473  -0.000067   0.000011  -0.000174  -0.000169  -0.000028
    16  H   -0.000042  -0.000039  -0.000048  -0.000044  -0.000156  -0.000044
    17  H   -0.000052  -0.000023  -0.000020  -0.000049  -0.000165  -0.000048
    18  H    0.001277  -0.000011  -0.000017  -0.000147  -0.000044  -0.000156
    19  H    0.001449  -0.000072  -0.000071  -0.000159  -0.000048  -0.000164
              13         14         15         16         17         18
     1  Cr   0.006945   0.000238   0.000313  -0.000150   0.000176  -0.000149
     2  O    0.000450  -0.000039  -0.000043  -0.001739  -0.000284  -0.000313
     3  O   -0.000057   0.000631   0.000981   0.000990   0.000987   0.000977
     4  O   -0.006448   0.000959   0.000636   0.000976   0.000974   0.000990
     5  O    0.000444   0.000118   0.000170  -0.000313  -0.001652  -0.001742
     6  O   -0.000089  -0.000400  -0.000393   0.001283   0.001450  -0.000042
     7  O    0.000371  -0.000475  -0.000473  -0.000042  -0.000052   0.001277
     8  H   -0.000026   0.000012  -0.000067  -0.000039  -0.000023  -0.000011
     9  H   -0.000174  -0.000067   0.000011  -0.000048  -0.000020  -0.000017
    10  H    0.000011  -0.000026  -0.000174  -0.000044  -0.000049  -0.000147
    11  H   -0.000026  -0.000028  -0.000169  -0.000156  -0.000165  -0.000044
    12  H    0.000857  -0.000168  -0.000028  -0.000044  -0.000048  -0.000156
    13  H    0.002821  -0.000163  -0.000028  -0.000147  -0.000159  -0.000044
    14  H   -0.000163   0.000709  -0.000319  -0.000011  -0.000072  -0.000039
    15  H   -0.000028  -0.000319   0.000602  -0.000017  -0.000071  -0.000048
    16  H   -0.000147  -0.000011  -0.000017   0.000160  -0.000237   0.000010
    17  H   -0.000159  -0.000072  -0.000071  -0.000237  -0.000234  -0.000044
    18  H   -0.000044  -0.000039  -0.000048   0.000010  -0.000044   0.000161
    19  H   -0.000049  -0.000023  -0.000020  -0.000044   0.000006  -0.000236
              19
     1  Cr   0.000178
     2  O   -0.001649
     3  O    0.000973
     4  O    0.000986
     5  O   -0.000284
     6  O   -0.000052
     7  O    0.001449
     8  H   -0.000072
     9  H   -0.000071
    10  H   -0.000159
    11  H   -0.000048
    12  H   -0.000164
    13  H   -0.000049
    14  H   -0.000023
    15  H   -0.000020
    16  H   -0.000044
    17  H    0.000006
    18  H   -0.000236
    19  H   -0.000238
 Mulliken charges and spin densities:
               1          2
     1  Cr   0.732098   4.009728
     2  O   -0.476256  -0.001748
     3  O   -0.491795  -0.010875
     4  O   -0.491844  -0.010883
     5  O   -0.476144  -0.001706
     6  O   -0.455682  -0.003860
     7  O   -0.455611  -0.003856
     8  H    0.352400   0.000836
     9  H    0.352404   0.000861
    10  H    0.332386   0.004490
    11  H    0.332339   0.004540
    12  H    0.332341   0.004542
    13  H    0.332400   0.004488
    14  H    0.352381   0.000839
    15  H    0.352406   0.000865
    16  H    0.344068   0.000389
    17  H    0.344024   0.000484
    18  H    0.344053   0.000384
    19  H    0.344032   0.000484
 Sum of Mulliken charges =   2.00000   4.00000
 Mulliken charges and spin densities with hydrogens summed into heavy atoms:
               1          2
     1  Cr   0.732098   4.009728
     2  O    0.228547  -0.000051
     3  O    0.172930  -0.001846
     4  O    0.172897  -0.001853
     5  O    0.228643  -0.000003
     6  O    0.232409  -0.002987
     7  O    0.232475  -0.002988
 Electronic spatial extent (au):  <R**2>=           1198.6742
 Charge=              2.0000 electrons
 Dipole moment (field-independent basis, Debye):
    X=              0.0008    Y=              0.0014    Z=              0.0020  Tot=              0.0026
 Quadrupole moment (field-independent basis, Debye-Ang):
   XX=            -15.0282   YY=            -14.9219   ZZ=            -14.7452
   XY=             -0.0046   XZ=              0.0058   YZ=             -0.0241
 Traceless Quadrupole moment (field-independent basis, Debye-Ang):
   XX=             -0.1298   YY=             -0.0235   ZZ=              0.1532
   XY=             -0.0046   XZ=              0.0058   YZ=             -0.0241
 Octapole moment (field-independent basis, Debye-Ang**2):
  XXX=              0.0016  YYY=              0.0033  ZZZ=              0.0507  XYY=             -0.0021
  XXY=              0.0104  XXZ=             -0.0261  XZZ=              0.0035  YZZ=              0.0022
  YYZ=              0.0049  XYZ=             -0.0002
 Hexadecapole moment (field-independent basis, Debye-Ang**3):
 XXXX=           -121.4879 YYYY=           -106.3349 ZZZZ=           -106.3813 XXXY=              4.3434
 XXXZ=             -0.3251 YYYX=             -3.1410 YYYZ=             13.1505 ZZZX=              0.5024
 ZZZY=            -13.1846 XXYY=           -111.2409 XXZZ=           -117.7485 YYZZ=            -99.7172
 XXYZ=              0.3747 YYXZ=             -0.2077 ZZXY=             -0.1790
 N-N= 6.189896288217D+02 E-N=-4.775714453360D+03  KE= 1.500144135071D+03
                          Isotropic Fermi Contact Couplings
        Atom                 a.u.       MegaHertz       Gauss      10(-4) cm-1
     1  Cr(53)            -1.04904      66.39434      23.69115      22.14677
     2  O(17)             -0.00214       0.32457       0.11582       0.10827
     3  O(17)              0.10372     -15.71794      -5.60855      -5.24294
     4  O(17)              0.10371     -15.71691      -5.60818      -5.24260
     5  O(17)             -0.00207       0.31437       0.11217       0.10486
     6  O(17)             -0.00200       0.30245       0.10792       0.10089
     7  O(17)             -0.00201       0.30502       0.10884       0.10175
     8  H(1)               0.00088       0.98826       0.35264       0.32965
     9  H(1)               0.00088       0.98660       0.35204       0.32910
    10  H(1)               0.00114       1.27021       0.45324       0.42370
    11  H(1)               0.00114       1.26941       0.45296       0.42343
    12  H(1)               0.00114       1.26899       0.45281       0.42329
    13  H(1)               0.00114       1.27054       0.45336       0.42381
    14  H(1)               0.00088       0.98713       0.35223       0.32927
    15  H(1)               0.00088       0.98579       0.35175       0.32882
    16  H(1)               0.00078       0.87442       0.31201       0.29167
    17  H(1)               0.00077       0.86430       0.30840       0.28830
    18  H(1)               0.00078       0.87344       0.31166       0.29135
    19  H(1)               0.00077       0.86417       0.30836       0.28826
 --------------------------------------------------------
       Center         ----  Spin Dipole Couplings  ----
                      3XX-RR        3YY-RR        3ZZ-RR
 --------------------------------------------------------
     1   Atom        1.629910     -0.802776     -0.827134
     2   Atom       -0.068771      0.007540      0.061231
     3   Atom        0.135556     -0.093192     -0.042364
     4   Atom        0.135553     -0.093172     -0.042382
     5   Atom       -0.068806      0.007541      0.061265
     6   Atom        0.010018      0.059506     -0.069525
     7   Atom        0.010054      0.059487     -0.069542
     8   Atom       -0.019662     -0.026228      0.045890
     9   Atom       -0.019414     -0.026341      0.045755
    10   Atom        0.038779     -0.014406     -0.024373
    11   Atom        0.040075     -0.015596     -0.024479
    12   Atom        0.040083     -0.015607     -0.024477
    13   Atom        0.038764     -0.014392     -0.024372
    14   Atom       -0.019651     -0.026236      0.045887
    15   Atom       -0.019420     -0.026334      0.045755
    16   Atom       -0.025773      0.042324     -0.016551
    17   Atom       -0.025752      0.048166     -0.022414
    18   Atom       -0.025776      0.042325     -0.016549
    19   Atom       -0.025752      0.048168     -0.022416
 --------------------------------------------------------
                        XY            XZ            YZ
 --------------------------------------------------------
     1   Atom        0.047090     -0.003188      0.000319
     2   Atom       -0.001179      0.000272     -0.004716
     3   Atom        0.003011      0.000224     -0.003345
     4   Atom        0.003083     -0.000052     -0.003335
     5   Atom       -0.001150      0.000259     -0.004718
     6   Atom       -0.001152     -0.000285      0.008651
     7   Atom       -0.001150     -0.000288      0.008646
     8   Atom        0.001556     -0.021691     -0.005192
     9   Atom       -0.001362      0.022105     -0.004496
    10   Atom        0.019785      0.001186      0.000618
    11   Atom       -0.018218     -0.001319      0.000625
    12   Atom       -0.018199     -0.001372      0.000636
    13   Atom        0.019799      0.001125      0.000601
    14   Atom        0.001556     -0.021715     -0.005185
    15   Atom       -0.001364      0.022085     -0.004505
    16   Atom       -0.001167     -0.000453      0.026236
    17   Atom       -0.001316      0.000316     -0.017536
    18   Atom       -0.001165     -0.000453      0.026243
    19   Atom       -0.001317      0.000316     -0.017534
 --------------------------------------------------------


 ---------------------------------------------------------------------------------
              Anisotropic Spin Dipole Couplings in Principal Axis System
 ---------------------------------------------------------------------------------

       Atom             a.u.   MegaHertz   Gauss  10(-4) cm-1        Axes

              Baa    -0.8271    24.996     8.919     8.338  0.0016 -0.0162  0.9999
     1 Cr(53) Bbb    -0.8037    24.287     8.666     8.101 -0.0193  0.9997  0.0162
              Bcc     1.6308   -49.282   -17.585   -16.439  0.9998  0.0193 -0.0013
 
              Baa    -0.0688     4.978     1.776     1.660  0.9999  0.0153 -0.0015
     2 O(17)  Bbb     0.0071    -0.517    -0.185    -0.172 -0.0152  0.9961  0.0869
              Bcc     0.0616    -4.460    -1.592    -1.488  0.0029 -0.0869  0.9962
 
              Baa    -0.0935     6.762     2.413     2.256 -0.0132  0.9978  0.0654
     3 O(17)  Bbb    -0.0421     3.050     1.088     1.017 -0.0001 -0.0654  0.9979
              Bcc     0.1356    -9.812    -3.501    -3.273  0.9999  0.0131  0.0010
 
              Baa    -0.0934     6.761     2.412     2.255 -0.0134  0.9978  0.0652
     4 O(17)  Bbb    -0.0422     3.051     1.089     1.018  0.0014 -0.0652  0.9979
              Bcc     0.1356    -9.812    -3.501    -3.273  0.9999  0.0135 -0.0005
 
              Baa    -0.0688     4.980     1.777     1.661  0.9999  0.0150 -0.0014
     5 O(17)  Bbb     0.0071    -0.517    -0.185    -0.172 -0.0148  0.9961  0.0869
              Bcc     0.0617    -4.463    -1.592    -1.489  0.0027 -0.0869  0.9962
 
              Baa    -0.0701     5.073     1.810     1.692  0.0026 -0.0666  0.9978
     6 O(17)  Bbb     0.0100    -0.723    -0.258    -0.241  0.9997  0.0234 -0.0010
              Bcc     0.0601    -4.350    -1.552    -1.451 -0.0233  0.9975  0.0666
 
              Baa    -0.0701     5.074     1.810     1.692  0.0026 -0.0665  0.9978
     7 O(17)  Bbb     0.0100    -0.726    -0.259    -0.242  0.9997  0.0234 -0.0011
              Bcc     0.0601    -4.348    -1.552    -1.450 -0.0233  0.9975  0.0666
 
              Baa    -0.0266   -14.192    -5.064    -4.734 -0.0066  0.9976  0.0695
     8 H(1)   Bbb    -0.0262   -13.973    -4.986    -4.661  0.9578 -0.0137  0.2872
              Bcc     0.0528    28.166    10.050     9.395 -0.2875 -0.0684  0.9553
 
              Baa    -0.0266   -14.204    -5.068    -4.738 -0.0237  0.9973  0.0692
     9 H(1)   Bbb    -0.0262   -13.981    -4.989    -4.664  0.9558  0.0429 -0.2909
              Bcc     0.0528    28.185    10.057     9.401  0.2931 -0.0592  0.9542
 
              Baa    -0.0244   -13.025    -4.648    -4.345  0.0015 -0.0645  0.9979
    10 H(1)   Bbb    -0.0209   -11.175    -3.988    -3.728 -0.3150  0.9471  0.0617
              Bcc     0.0454    24.200     8.635     8.072  0.9491  0.3144  0.0189
 
              Baa    -0.0245   -13.084    -4.669    -4.364  0.0016 -0.0666  0.9978
    11 H(1)   Bbb    -0.0210   -11.212    -4.001    -3.740  0.2865  0.9560  0.0634
              Bcc     0.0455    24.296     8.669     8.104  0.9581 -0.2857 -0.0206
 
              Baa    -0.0245   -13.084    -4.669    -4.364  0.0027 -0.0656  0.9978
    12 H(1)   Bbb    -0.0210   -11.211    -4.001    -3.740  0.2862  0.9562  0.0621
              Bcc     0.0455    24.295     8.669     8.104  0.9582 -0.2854 -0.0214
 
              Baa    -0.0244   -13.023    -4.647    -4.344  0.0026 -0.0650  0.9979
    13 H(1)   Bbb    -0.0209   -11.174    -3.987    -3.727 -0.3152  0.9470  0.0625
              Bcc     0.0454    24.197     8.634     8.071  0.9490  0.3147  0.0180
 
              Baa    -0.0266   -14.196    -5.065    -4.735 -0.0063  0.9976  0.0695
    14 H(1)   Bbb    -0.0262   -13.975    -4.987    -4.662  0.9577 -0.0139  0.2875
              Bcc     0.0528    28.171    10.052     9.397 -0.2878 -0.0683  0.9553
 
              Baa    -0.0266   -14.201    -5.067    -4.737 -0.0244  0.9973  0.0695
    15 H(1)   Bbb    -0.0262   -13.978    -4.988    -4.663  0.9558  0.0436 -0.2906
              Bcc     0.0528    28.179    10.055     9.399  0.2929 -0.0594  0.9543
 
              Baa    -0.0265   -14.164    -5.054    -4.724  0.0112 -0.3558  0.9345
    16 H(1)   Bbb    -0.0258   -13.762    -4.911    -4.590  0.9998  0.0190 -0.0048
              Bcc     0.0523    27.925     9.964     9.315 -0.0160  0.9344  0.3559
 
              Baa    -0.0265   -14.156    -5.051    -4.722 -0.0087  0.2284  0.9735
    17 H(1)   Bbb    -0.0258   -13.753    -4.907    -4.587  0.9998  0.0189  0.0045
              Bcc     0.0523    27.908     9.958     9.309 -0.0173  0.9734 -0.2285
 
              Baa    -0.0265   -14.165    -5.054    -4.725  0.0112 -0.3559  0.9345
    18 H(1)   Bbb    -0.0258   -13.763    -4.911    -4.591  0.9998  0.0190 -0.0048
              Bcc     0.0523    27.929     9.966     9.316 -0.0160  0.9343  0.3560
 
              Baa    -0.0265   -14.156    -5.051    -4.722 -0.0086  0.2284  0.9735
    19 H(1)   Bbb    -0.0258   -13.753    -4.907    -4.587  0.9998  0.0189  0.0044
              Bcc     0.0523    27.909     9.959     9.309 -0.0173  0.9734 -0.2285
 

 ---------------------------------------------------------------------------------

 1\1\GINC-MN102\FOpt\UM062X\6-311++G(2d,2p)\Cr1H12O6(2+,5)\DARAM_A\29-J
 un-2015\0\\# opt 6-311++g(2d,2p) m062x output=wfnx scf=tight\\Cr[H2O]6
  (2+)\\2,5\Cr,-0.00004106,0.0000159458,-0.0002985985\O,-0.0065839064,0
 .0266153197,-2.1047965537\O,-2.3216814567,0.0132977573,0.009740299\O,2
 .3216837384,-0.0139180071,-0.0077595825\O,0.0068804522,-0.0261514176,2
 .104212957\O,-0.0205240973,-2.107348469,-0.0263035222\O,0.020405611,2.
 1073220469,0.0257523383\H,-0.7881266573,0.0380176426,-2.6699245576\H,0
 .7720414914,0.0294964158,-2.6740175028\H,-2.9024608405,0.7825002051,0.
 0204606959\H,-2.9043144888,-0.7545658697,0.0025689117\H,2.9044681888,0
 .7538338434,-0.0008002301\H,2.9023178075,-0.783229538,-0.0183294078\H,
 0.7887465194,-0.0376931335,2.6688940386\H,-0.7714683476,-0.0297634419,
 2.6738016641\H,-0.022155949,-2.6669779625,-0.8113140563\H,-0.016383917
 5,-2.6870941361,0.7439166128\H,0.0220183648,2.6668462195,0.8108366774\
 H,0.0163375577,2.6871415993,-0.7444131834\\Version=ES64L-G09RevD.01\St
 ate=5-A\HF=-1502.5903453\S2=6.002983\S2-1=0.\S2A=6.000003\RMSD=4.619e-
 09\RMSF=1.221e-04\Dipole=0.0003029,-0.0005871,-0.0007659\Quadrupole=-0
 .0965855,-0.0189364,0.1155218,0.002283,-0.0031484,-0.0107539\PG=C01 [X
 (Cr1H12O6)]\\@

 Writing a WFNX file to "Cr25.wfx"


 Happiness is a conscious choice, not an automatic response.
 -- Mildred Barthel
 Job cpu time:       0 days 11 hours 57 minutes 41.3 seconds.
 File lengths (MBytes):  RWF=     93 Int=      0 D2E=      0 Chk=     12 Scr=      1
 Normal termination of Gaussian 09 at Mon Jun 29 18:03:03 2015.
