 Entering Gaussian System, Link 0=g09
 Input=/home/scratch/M_H2O_4_cuadrado_plano/Opt/Cr2_cuadrado_plano_cc-pvtz-def2-tzv_1.gjf
 Output=/home/scratch/M_H2O_4_cuadrado_plano/Opt/Cr2_cuadrado_plano_cc-pvtz-def2-tzv_1.log
 Initial command:
 /opt/g09/l1.exe "/home/scratch/Gau-65978.inp" -scrdir="/home/scratch/"
 Entering Link 1 = /opt/g09/l1.exe PID=     65981.
  
 Copyright (c) 1988,1990,1992,1993,1995,1998,2003,2009,2015,
            Gaussian, Inc.  All Rights Reserved.
  
 This is part of the Gaussian(R) 09 program.  It is based on
 the Gaussian(R) 03 system (copyright 2003, Gaussian, Inc.),
 the Gaussian(R) 98 system (copyright 1998, Gaussian, Inc.),
 the Gaussian(R) 94 system (copyright 1995, Gaussian, Inc.),
 the Gaussian 92(TM) system (copyright 1992, Gaussian, Inc.),
 the Gaussian 90(TM) system (copyright 1990, Gaussian, Inc.),
 the Gaussian 88(TM) system (copyright 1988, Gaussian, Inc.),
 the Gaussian 86(TM) system (copyright 1986, Carnegie Mellon
 University), and the Gaussian 82(TM) system (copyright 1983,
 Carnegie Mellon University). Gaussian is a federally registered
 trademark of Gaussian, Inc.
  
 This software contains proprietary and confidential information,
 including trade secrets, belonging to Gaussian, Inc.
  
 This software is provided under written license and may be
 used, copied, transmitted, or stored only in accord with that
 written license.
  
 The following legend is applicable only to US Government
 contracts under FAR:
  
                    RESTRICTED RIGHTS LEGEND
  
 Use, reproduction and disclosure by the US Government is
 subject to restrictions as set forth in subparagraphs (a)
 and (c) of the Commercial Computer Software - Restricted
 Rights clause in FAR 52.227-19.
  
 Gaussian, Inc.
 340 Quinnipiac St., Bldg. 40, Wallingford CT 06492
  
  
 ---------------------------------------------------------------
 Warning -- This program may not be used in any manner that
 competes with the business of Gaussian, Inc. or will provide
 assistance to any competitor of Gaussian, Inc.  The licensee
 of this program is prohibited from giving any competitor of
 Gaussian, Inc. access to this program.  By using this program,
 the user acknowledges that Gaussian, Inc. is engaged in the
 business of creating and licensing software in the field of
 computational chemistry and represents and warrants to the
 licensee that it is not a competitor of Gaussian, Inc. and that
 it will not use this program in any manner prohibited above.
 ---------------------------------------------------------------
  

 Cite this work as:
 Gaussian 09, Revision E.01,
 M. J. Frisch, G. W. Trucks, H. B. Schlegel, G. E. Scuseria, 
 M. A. Robb, J. R. Cheeseman, G. Scalmani, V. Barone, B. Mennucci, 
 G. A. Petersson, H. Nakatsuji, M. Caricato, X. Li, H. P. Hratchian, 
 A. F. Izmaylov, J. Bloino, G. Zheng, J. L. Sonnenberg, M. Hada, 
 M. Ehara, K. Toyota, R. Fukuda, J. Hasegawa, M. Ishida, T. Nakajima, 
 Y. Honda, O. Kitao, H. Nakai, T. Vreven, J. A. Montgomery, Jr., 
 J. E. Peralta, F. Ogliaro, M. Bearpark, J. J. Heyd, E. Brothers, 
 K. N. Kudin, V. N. Staroverov, T. Keith, R. Kobayashi, J. Normand, 
 K. Raghavachari, A. Rendell, J. C. Burant, S. S. Iyengar, J. Tomasi, 
 M. Cossi, N. Rega, J. M. Millam, M. Klene, J. E. Knox, J. B. Cross, 
 V. Bakken, C. Adamo, J. Jaramillo, R. Gomperts, R. E. Stratmann, 
 O. Yazyev, A. J. Austin, R. Cammi, C. Pomelli, J. W. Ochterski, 
 R. L. Martin, K. Morokuma, V. G. Zakrzewski, G. A. Voth, 
 P. Salvador, J. J. Dannenberg, S. Dapprich, A. D. Daniels, 
 O. Farkas, J. B. Foresman, J. V. Ortiz, J. Cioslowski, 
 and D. J. Fox, Gaussian, Inc., Wallingford CT, 2013.
 
 ******************************************
 Gaussian 09:  EM64L-G09RevE.01 30-Nov-2015
                 8-Aug-2024 
 ******************************************
 %chk=Cr2_cuadrado_plano_cc-pvtz-def2-tzv_1.chk
 ------------------------------------------------------------------
 # opt pbepbe/cc-pvtz/def2tzv pop=full geom=connectivity output=wfx
 ------------------------------------------------------------------
 1/14=-1,18=20,19=15,26=3,38=1,57=2/1,3;
 2/9=110,12=2,17=6,18=5,40=1/2;
 3/5=16,6=1,11=2,16=1,25=1,30=1,71=1,74=1009,82=44/1,2,3;
 4//1;
 5/5=2,38=5/2;
 6/7=3,28=1/1;
 7//1,2,3,16;
 1/14=-1,18=20,19=15,26=3/3(2);
 2/9=110/2;
 99/6=200/99;
 2/9=110/2;
 3/5=16,6=1,11=2,16=1,25=1,30=1,71=1,74=1009,82=44/1,2,3;
 4/5=5,16=3,69=1/1;
 5/5=2,38=5/2;
 7//1,2,3,16;
 1/14=-1,18=20,19=15,26=3/3(-5);
 2/9=110/2;
 6/7=3,19=2,28=1/1;
 99/6=200,9=1/99;
 -------------------------------------
 Cr2_cuadrado_plano_cc-pvtz-def2-tzv_1
 -------------------------------------
 Symbolic Z-matrix:
 Charge =  2 Multiplicity = 1
 Cr                   -1    0.00007   0.00002  -0.00024 
 O                    -1    1.75499  -0.35225   0.00039 
 H                    0     2.20676  -1.22852   0.02861 
 O                    -1   -1.75501   0.35224  -0.00006 
 H                    0    -2.20753   1.22818  -0.02776 
 O                    -1   -0.35229  -1.75498  -0.00027 
 H                    0     0.28219  -2.51007  -0.00729 
 O                    -1    0.35221   1.75502   0.00047 
 H                    0    -0.28258   2.50986   0.00789 
 H                    0     1.22884   2.20696   0.00919 
 H                    0    -2.50943  -0.28239   0.02967 
 H                    0     2.5099    0.28175  -0.03022 
 H                    0    -1.22909  -2.20656  -0.00844 
 

 GradGradGradGradGradGradGradGradGradGradGradGradGradGradGradGradGradGrad
 Berny optimization.
 Initialization pass.
                           ----------------------------
                           !    Initial Parameters    !
                           ! (Angstroms and Degrees)  !
 --------------------------                            --------------------------
 ! Name  Definition              Value          Derivative Info.                !
 --------------------------------------------------------------------------------
 ! X1    R(1,-1)                 0.0001         Frozen                          !
 ! Y1    R(1,-2)                 0.0            Frozen                          !
 ! Z1    R(1,-3)                -0.0002         Frozen                          !
 ! X2    R(2,-1)                 1.755          Frozen                          !
 ! Y2    R(2,-2)                -0.3523         Frozen                          !
 ! Z2    R(2,-3)                 0.0004         Frozen                          !
 ! X4    R(4,-1)                -1.755          Frozen                          !
 ! Y4    R(4,-2)                 0.3522         Frozen                          !
 ! Z4    R(4,-3)                -0.0001         Frozen                          !
 ! X6    R(6,-1)                -0.3523         Frozen                          !
 ! Y6    R(6,-2)                -1.755          Frozen                          !
 ! Z6    R(6,-3)                -0.0003         Frozen                          !
 ! X8    R(8,-1)                 0.3522         Frozen                          !
 ! Y8    R(8,-2)                 1.755          Frozen                          !
 ! Z8    R(8,-3)                 0.0005         Frozen                          !
 ! R1    R(2,3)                  0.9863         estimate D2E/DX2                !
 ! R2    R(2,12)                 0.9863         estimate D2E/DX2                !
 ! R3    R(4,5)                  0.9863         estimate D2E/DX2                !
 ! R4    R(4,11)                 0.9863         estimate D2E/DX2                !
 ! R5    R(6,7)                  0.9863         estimate D2E/DX2                !
 ! R6    R(6,13)                 0.9863         estimate D2E/DX2                !
 ! R7    R(8,9)                  0.9863         estimate D2E/DX2                !
 ! R8    R(8,10)                 0.9863         estimate D2E/DX2                !
 ! A1    A(1,2,3)              128.6064         estimate D2E/DX2                !
 ! A2    A(1,2,12)             128.6021         estimate D2E/DX2                !
 ! A3    A(3,2,12)             102.7913         estimate D2E/DX2                !
 ! A4    A(1,4,5)              128.6507         estimate D2E/DX2                !
 ! A5    A(1,4,11)             128.5607         estimate D2E/DX2                !
 ! A6    A(5,4,11)             102.7885         estimate D2E/DX2                !
 ! A7    A(1,6,7)              128.6069         estimate D2E/DX2                !
 ! A8    A(1,6,13)             128.6004         estimate D2E/DX2                !
 ! A9    A(7,6,13)             102.7858         estimate D2E/DX2                !
 ! A10   A(1,8,9)              128.5908         estimate D2E/DX2                !
 ! A11   A(1,8,10)             128.6173         estimate D2E/DX2                !
 ! A12   A(9,8,10)             102.7845         estimate D2E/DX2                !
 ! D1    D(6,1,2,3)             -2.083          estimate D2E/DX2                !
 ! D2    D(6,1,2,12)           177.7068         estimate D2E/DX2                !
 ! D3    D(8,1,2,3)            177.8953         estimate D2E/DX2                !
 ! D4    D(8,1,2,12)            -2.3149         estimate D2E/DX2                !
 ! D5    D(3,2,4,5)            179.9626         estimate D2E/DX2                !
 ! D6    D(3,2,4,11)             0.1225         estimate D2E/DX2                !
 ! D7    D(12,2,4,5)            -0.2269         estimate D2E/DX2                !
 ! D8    D(12,2,4,11)          179.933          estimate D2E/DX2                !
 ! D9    D(6,1,4,5)           -177.9336         estimate D2E/DX2                !
 ! D10   D(6,1,4,11)             2.2055         estimate D2E/DX2                !
 ! D11   D(8,1,4,5)              2.0881         estimate D2E/DX2                !
 ! D12   D(8,1,4,11)          -177.7728         estimate D2E/DX2                !
 ! D13   D(2,1,6,7)             -0.5408         estimate D2E/DX2                !
 ! D14   D(2,1,6,13)          -179.4142         estimate D2E/DX2                !
 ! D15   D(4,1,6,7)            179.4853         estimate D2E/DX2                !
 ! D16   D(4,1,6,13)             0.6119         estimate D2E/DX2                !
 ! D17   D(7,6,8,9)           -179.97           estimate D2E/DX2                !
 ! D18   D(7,6,8,10)            -1.1511         estimate D2E/DX2                !
 ! D19   D(13,6,8,9)             1.1392         estimate D2E/DX2                !
 ! D20   D(13,6,8,10)          179.9581         estimate D2E/DX2                !
 ! D21   D(2,1,8,9)           -179.4465         estimate D2E/DX2                !
 ! D22   D(2,1,8,10)            -0.6102         estimate D2E/DX2                !
 ! D23   D(4,1,8,9)              0.5273         estimate D2E/DX2                !
 ! D24   D(4,1,8,10)           179.3636         estimate D2E/DX2                !
 --------------------------------------------------------------------------------
 Trust Radius=3.00D-01 FncErr=1.00D-07 GrdErr=1.00D-06
 Number of steps in this run=     69 maximum allowed number of steps=    100.
 GradGradGradGradGradGradGradGradGradGradGradGradGradGradGradGradGradGrad

                          Input orientation:                          
 ---------------------------------------------------------------------
 Center     Atomic      Atomic             Coordinates (Angstroms)
 Number     Number       Type             X           Y           Z
 ---------------------------------------------------------------------
      1         24           0        0.000070    0.000024   -0.000243
      2          8           0        1.754992   -0.352251    0.000392
      3          1           0        2.206762   -1.228519    0.028611
      4          8           0       -1.755007    0.352244   -0.000063
      5          1           0       -2.207525    1.228184   -0.027761
      6          8           0       -0.352287   -1.754982   -0.000275
      7          1           0        0.282193   -2.510069   -0.007287
      8          8           0        0.352208    1.755016    0.000468
      9          1           0       -0.282583    2.509861    0.007885
     10          1           0        1.228842    2.206960    0.009193
     11          1           0       -2.509434   -0.282392    0.029666
     12          1           0        2.509902    0.281746   -0.030217
     13          1           0       -1.229093   -2.206557   -0.008440
 ---------------------------------------------------------------------
                    Distance matrix (angstroms):
                    1          2          3          4          5
     1  Cr   0.000000
     2  O    1.789930   0.000000
     3  H    2.525795   0.986275   0.000000
     4  O    1.790070   3.580000   4.265589   0.000000
     5  H    2.526383   4.266159   5.052178   0.986313   0.000000
     6  O    1.790028   2.531457   2.612801   2.531408   3.513111
     7  H    2.525907   2.612541   2.312494   3.513270   4.491509
     8  O    1.789972   2.531477   3.513068   2.531428   2.613539
     9  H    2.525716   3.513325   4.491409   2.612165   2.312870
    10  H    2.525972   2.612752   3.572005   3.513319   3.573232
    11  H    2.525522   4.265098   4.810163   0.986309   1.541521
    12  H    2.525772   0.986296   1.541511   4.265598   4.811432
    13  H    2.525848   3.513301   3.572539   2.612301   3.571435
                    6          7          8          9         10
     6  O    0.000000
     7  H    0.986291   0.000000
     8  O    3.580000   4.265667   0.000000
     9  H    4.265420   5.051623   0.986309   0.000000
    10  H    4.265799   4.811109   0.986314   1.541479   0.000000
    11  H    2.612031   3.571707   3.512959   3.571556   4.491324
    12  H    3.513017   3.571757   2.612874   3.572663   2.312815
    13  H    0.986294   1.541462   4.265519   4.810482   5.051820
                   11         12         13
    11  H    0.000000
    12  H    5.051294   0.000000
    13  H    2.311522   4.491349   0.000000
 Stoichiometry    CrH8O4(2+)
 Framework group  C1[X(CrH8O4)]
 Deg. of freedom    33
 Full point group                 C1      NOp   1
 Largest Abelian subgroup         C1      NOp   1
 Largest concise Abelian subgroup C1      NOp   1
                         Standard orientation:                         
 ---------------------------------------------------------------------
 Center     Atomic      Atomic             Coordinates (Angstroms)
 Number     Number       Type             X           Y           Z
 ---------------------------------------------------------------------
      1         24           0        0.000070    0.000024   -0.000243
      2          8           0        1.754991   -0.352253    0.000392
      3          1           0        2.206761   -1.228521    0.028611
      4          8           0       -1.755006    0.352245   -0.000063
      5          1           0       -2.207524    1.228186   -0.027761
      6          8           0       -0.352288   -1.754982   -0.000275
      7          1           0        0.282191   -2.510069   -0.007287
      8          8           0        0.352210    1.755016    0.000468
      9          1           0       -0.282581    2.509861    0.007885
     10          1           0        1.228844    2.206958    0.009193
     11          1           0       -2.509434   -0.282389    0.029666
     12          1           0        2.509903    0.281744   -0.030217
     13          1           0       -1.229095   -2.206556   -0.008440
 ---------------------------------------------------------------------
 Rotational constants (GHZ):      3.9415540      3.9414360      1.9708042
 Standard basis: CC-pVTZ (5D, 7F)
 There are   344 symmetry adapted cartesian basis functions of A   symmetry.
 There are   300 symmetry adapted basis functions of A   symmetry.
   300 basis functions,   691 primitive gaussians,   344 cartesian basis functions
    31 alpha electrons       31 beta electrons
       nuclear repulsion energy       409.3876460323 Hartrees.
 NAtoms=   13 NActive=   13 NUniq=   13 SFac= 1.00D+00 NAtFMM=   60 NAOKFM=F Big=F
 Integral buffers will be    131072 words long.
 Raffenetti 2 integral format.
 Two-electron integral symmetry is turned on.
 Standard density basis: def2TZV (5D, 7F)
   110 Density fitting functions
 There are   110 symmetry adapted density basis functions of A   symmetry.
 One-electron integrals computed using PRISM.
 NBasis=   300 RedAO= T EigKep=  1.04D-03  NBF=   300
 NBsUse=   300 1.00D-06 EigRej= -1.00D+00 NBFU=   300
 NBasis=      300 NBas6D=      344 NTT=       45150   NTT6D=    59340
 NDBShl=       68 NDBF=        110 NDBF6D=      113  NNucDB=        0
 IDenFi=        2 ISolve=        0 FullAP=F BlkAPC=T NucTyp=        0
 TolInv= 1.00D-06 TolIt=  1.00D-10 IR12=0.
 FoFCou: FMM=F IPFlag=           0 FMFlag=           0 FMFlg1=           0
         NFxFlg=           0 DoJE=F BraDBF=T KetDBF=T FulRan=T
         wScrn=  0.000000 ICntrl=     600 IOpCl=  3 I1Cent=           6 NGrid=           0
         NMat0=    1 NMatS0=    113 NMatT0=    0 NMatD0=    1 NMtDS0=    0 NMtDT0=    0
 Petite list used in FoFCou.
 DBF EigKep=  1.11D-04 EigRej= -1.00D+00
 NDBF=    110  NBFD=   110
 NRank=   110 NBFDU=   110
 S*AI*S=  9.98353923347    
 ExpMin= 3.33D-02 ExpMax= 6.18D+06 ExpMxC= 2.74D+03 IAcc=3 IRadAn=         5 AccDes= 0.00D+00
 Harris functional with IExCor= 1009 and IRadAn=       5 diagonalized for initial guess.
 HarFok:  IExCor= 1009 AccDes= 0.00D+00 IRadAn=         5 IDoV= 1 UseB2=F ITyADJ=14
 ICtDFT=  3500011 ScaDFX=  1.000000  1.000000  1.000000  1.000000
 FoFCou: FMM=F IPFlag=           0 FMFlag=      100000 FMFlg1=           0
         NFxFlg=           0 DoJE=T BraDBF=F KetDBF=T FulRan=T
         wScrn=  0.000000 ICntrl=     500 IOpCl=  0 I1Cent=   200000004 NGrid=           0
         NMat0=    1 NMatS0=      1 NMatT0=    0 NMatD0=    1 NMtDS0=    0 NMtDT0=    0
 Petite list used in FoFCou.
 Requested convergence on RMS density matrix=1.00D-08 within 128 cycles.
 Requested convergence on MAX density matrix=1.00D-06.
 Requested convergence on             energy=1.00D-06.
 No special actions if energy rises.
 FoFCou: FMM=F IPFlag=           0 FMFlag=      100000 FMFlg1=           0
         NFxFlg=           0 DoJE=T BraDBF=T KetDBF=F FulRan=T
         wScrn=  0.000000 ICntrl=     500 IOpCl=  0 I1Cent=           5 NGrid=           0
         NMat0=    1 NMatS0=      1 NMatT0=    0 NMatD0=    1 NMtDS0=    0 NMtDT0=    0
 Symmetry not used in FoFCou.
 SCF Done:  E(RPBE-PBE) =  -1350.05998404     A.U. after   16 cycles
            NFock= 16  Conv=0.64D-09     -V/T= 2.0018

 **********************************************************************

            Population analysis using the SCF density.

 **********************************************************************

 Orbital symmetries:
       Occupied  (A) (A) (A) (A) (A) (A) (A) (A) (A) (A) (A) (A)
                 (A) (A) (A) (A) (A) (A) (A) (A) (A) (A) (A) (A)
                 (A) (A) (A) (A) (A) (A) (A)
       Virtual   (A) (A) (A) (A) (A) (A) (A) (A) (A) (A) (A) (A)
                 (A) (A) (A) (A) (A) (A) (A) (A) (A) (A) (A) (A)
                 (A) (A) (A) (A) (A) (A) (A) (A) (A) (A) (A) (A)
                 (A) (A) (A) (A) (A) (A) (A) (A) (A) (A) (A) (A)
                 (A) (A) (A) (A) (A) (A) (A) (A) (A) (A) (A) (A)
                 (A) (A) (A) (A) (A) (A) (A) (A) (A) (A) (A) (A)
                 (A) (A) (A) (A) (A) (A) (A) (A) (A) (A) (A) (A)
                 (A) (A) (A) (A) (A) (A) (A) (A) (A) (A) (A) (A)
                 (A) (A) (A) (A) (A) (A) (A) (A) (A) (A) (A) (A)
                 (A) (A) (A) (A) (A) (A) (A) (A) (A) (A) (A) (A)
                 (A) (A) (A) (A) (A) (A) (A) (A) (A) (A) (A) (A)
                 (A) (A) (A) (A) (A) (A) (A) (A) (A) (A) (A) (A)
                 (A) (A) (A) (A) (A) (A) (A) (A) (A) (A) (A) (A)
                 (A) (A) (A) (A) (A) (A) (A) (A) (A) (A) (A) (A)
                 (A) (A) (A) (A) (A) (A) (A) (A) (A) (A) (A) (A)
                 (A) (A) (A) (A) (A) (A) (A) (A) (A) (A) (A) (A)
                 (A) (A) (A) (A) (A) (A) (A) (A) (A) (A) (A) (A)
                 (A) (A) (A) (A) (A) (A) (A) (A) (A) (A) (A) (A)
                 (A) (A) (A) (A) (A) (A) (A) (A) (A) (A) (A) (A)
                 (A) (A) (A) (A) (A) (A) (A) (A) (A) (A) (A) (A)
                 (A) (A) (A) (A) (A) (A) (A) (A) (A) (A) (A) (A)
                 (A) (A) (A) (A) (A) (A) (A) (A) (A) (A) (A) (A)
                 (A) (A) (A) (A) (A)
 The electronic state is 1-A.
 Alpha  occ. eigenvalues -- -214.75723 -24.83118 -21.20767 -21.19592 -21.19590
 Alpha  occ. eigenvalues --  -19.19461 -19.19461 -19.19461 -19.19459  -3.13073
 Alpha  occ. eigenvalues --   -2.10551  -2.10337  -2.10323  -1.37112  -1.35474
 Alpha  occ. eigenvalues --   -1.35470  -1.35469  -0.93355  -0.90286  -0.90283
 Alpha  occ. eigenvalues --   -0.87484  -0.86682  -0.84746  -0.80107  -0.80106
 Alpha  occ. eigenvalues --   -0.72526  -0.72412  -0.72412  -0.69785  -0.52568
 Alpha  occ. eigenvalues --   -0.52389
 Alpha virt. eigenvalues --   -0.45109  -0.45107  -0.39222  -0.35592  -0.35036
 Alpha virt. eigenvalues --   -0.35033  -0.29848  -0.28907  -0.26113  -0.26111
 Alpha virt. eigenvalues --   -0.25385  -0.24043  -0.22011  -0.16442  -0.16300
 Alpha virt. eigenvalues --   -0.16290  -0.16276  -0.16275  -0.12528  -0.12073
 Alpha virt. eigenvalues --   -0.12071  -0.07361  -0.05434  -0.02088   0.00832
 Alpha virt. eigenvalues --    0.00837   0.03186   0.06539   0.08312   0.11962
 Alpha virt. eigenvalues --    0.11967   0.11975   0.15873   0.18387   0.18404
 Alpha virt. eigenvalues --    0.18589   0.19771   0.21129   0.23342   0.23364
 Alpha virt. eigenvalues --    0.23614   0.23664   0.25932   0.26438   0.26446
 Alpha virt. eigenvalues --    0.29760   0.29892   0.30462   0.31584   0.40635
 Alpha virt. eigenvalues --    0.40639   0.44428   0.47088   0.47115   0.50781
 Alpha virt. eigenvalues --    0.52773   0.57395   0.60414   0.60422   0.62102
 Alpha virt. eigenvalues --    0.70087   0.70854   0.70868   0.76424   0.76488
 Alpha virt. eigenvalues --    0.77803   0.82097   0.85306   0.87438   0.87539
 Alpha virt. eigenvalues --    0.88506   0.92034   0.93101   0.93770   0.94767
 Alpha virt. eigenvalues --    1.02190   1.02618   1.03031   1.05263   1.06354
 Alpha virt. eigenvalues --    1.13394   1.13408   1.14273   1.23568   1.23616
 Alpha virt. eigenvalues --    1.23638   1.23651   1.29175   1.32791   1.33192
 Alpha virt. eigenvalues --    1.33266   1.41319   1.41373   1.47994   1.49106
 Alpha virt. eigenvalues --    1.55760   1.56710   1.56806   1.62058   1.66866
 Alpha virt. eigenvalues --    1.67474   1.67664   1.75817   1.78464   1.81433
 Alpha virt. eigenvalues --    1.89021   2.05040   2.06462   2.07560   2.07614
 Alpha virt. eigenvalues --    2.11918   2.17887   2.17908   2.25760   2.25764
 Alpha virt. eigenvalues --    2.40826   2.44018   2.48355   2.48366   2.53998
 Alpha virt. eigenvalues --    2.54041   2.58148   2.59747   2.70752   2.76595
 Alpha virt. eigenvalues --    2.77324   2.80363   2.80390   2.82812   2.83183
 Alpha virt. eigenvalues --    2.83284   2.86013   2.89061   2.91940   2.92055
 Alpha virt. eigenvalues --    2.92090   2.92097   2.93235   2.98399   2.98403
 Alpha virt. eigenvalues --    3.01061   3.01864   3.03210   3.06196   3.06210
 Alpha virt. eigenvalues --    3.13082   3.15729   3.16456   3.16483   3.16934
 Alpha virt. eigenvalues --    3.26464   3.26879   3.33463   3.35483   3.35587
 Alpha virt. eigenvalues --    3.36698   3.37657   3.38451   3.38475   3.42890
 Alpha virt. eigenvalues --    3.42980   3.47430   3.47443   3.51059   3.51173
 Alpha virt. eigenvalues --    3.52059   3.53050   3.54723   3.69815   3.69823
 Alpha virt. eigenvalues --    3.70221   3.71219   3.80113   3.81035   3.82312
 Alpha virt. eigenvalues --    3.82318   3.83085   3.88326   3.89488   3.91748
 Alpha virt. eigenvalues --    3.91756   3.96071   3.96082   4.01274   4.12752
 Alpha virt. eigenvalues --    4.15588   4.15594   4.19185   4.29371   4.43337
 Alpha virt. eigenvalues --    4.43361   4.51397   4.51432   4.52231   4.55863
 Alpha virt. eigenvalues --    4.56629   4.60318   4.65062   4.65073   4.74493
 Alpha virt. eigenvalues --    4.86717   4.86761   5.01821   5.02336   5.24588
 Alpha virt. eigenvalues --    5.32434   5.32455   5.41006   5.41911   5.43607
 Alpha virt. eigenvalues --    5.46019   5.46531   5.47204   5.47463   5.51712
 Alpha virt. eigenvalues --    5.51742   5.58419   5.67947   5.74606   5.74639
 Alpha virt. eigenvalues --    5.79994   5.83306   5.83315   5.86311   5.86321
 Alpha virt. eigenvalues --    5.89973   5.91034   5.91337   5.92342   5.99660
 Alpha virt. eigenvalues --    6.00891   6.00910   6.03299   6.12420   6.13550
 Alpha virt. eigenvalues --    6.15055   6.15066   6.18251   6.18254   6.18569
 Alpha virt. eigenvalues --    6.20477   6.20525   6.21175   6.22218   6.24457
 Alpha virt. eigenvalues --    6.33015   6.40208   6.43792   6.43813   6.51763
 Alpha virt. eigenvalues --    6.54698   6.54732   6.60622   6.84729   6.85621
 Alpha virt. eigenvalues --    6.87383   6.87387   6.90512   6.90550   6.92424
 Alpha virt. eigenvalues --    7.38117   7.38128   7.41218   7.43280   8.01239
 Alpha virt. eigenvalues --   11.92823  12.06364  12.06442  12.56556
     Molecular Orbital Coefficients:
                           1         2         3         4         5
                           O         O         O         O         O
     Eigenvalues --  -214.75723 -24.83118 -21.20767 -21.19592 -21.19590
   1 1   Cr 1S          1.00126  -0.30140   0.00000   0.00000  -0.00000
   2        2S          0.00095   0.99925  -0.00000  -0.00000   0.00000
   3        3S          0.00432   0.00669  -0.00000  -0.00000  -0.00000
   4        4S          0.00040  -0.00010  -0.00000  -0.00000  -0.00000
   5        5S         -0.00108  -0.00237  -0.00000  -0.00000   0.00000
   6        6S         -0.00853   0.04890  -0.00000   0.00000   0.00000
   7        7S          0.00001   0.00010   0.00000  -0.00000  -0.00000
   8        8PX        -0.00000   0.00000   0.00854   0.97972   0.20542
   9        8PY        -0.00000  -0.00000   0.04917  -0.20559   0.97848
  10        8PZ         0.00000   0.00000   0.99961   0.00174  -0.04987
  11        9PX        -0.00000  -0.00000   0.00006   0.00718   0.00151
  12        9PY        -0.00000  -0.00000   0.00034  -0.00151   0.00717
  13        9PZ         0.00000   0.00000   0.00420   0.00001  -0.00022
  14       10PX         0.00000   0.00000   0.00011   0.01298   0.00272
  15       10PY        -0.00000  -0.00000   0.00060  -0.00272   0.01296
  16       10PZ         0.00000   0.00000   0.00479   0.00001  -0.00025
  17       11PX         0.00000   0.00000   0.00003   0.00327   0.00069
  18       11PY         0.00000   0.00000   0.00017  -0.00069   0.00326
  19       11PZ         0.00000   0.00000   0.00310   0.00000  -0.00013
  20       12PX        -0.00000  -0.00000   0.00004   0.00502   0.00105
  21       12PY        -0.00000  -0.00000   0.00024  -0.00105   0.00501
  22       12PZ        -0.00000   0.00000   0.00360   0.00001  -0.00019
  23       13PX        -0.00000  -0.00000  -0.00001  -0.00057  -0.00012
  24       13PY        -0.00000  -0.00000  -0.00003   0.00012  -0.00057
  25       13PZ         0.00000  -0.00000  -0.00066  -0.00000   0.00002
  26       14D 0        0.00007  -0.00015  -0.00000  -0.00000  -0.00000
  27       14D+1       -0.00000  -0.00000  -0.00000   0.00000  -0.00000
  28       14D-1        0.00000  -0.00002   0.00000  -0.00000   0.00000
  29       14D+2        0.00000   0.00000  -0.00000   0.00000  -0.00000
  30       14D-2        0.00000   0.00000  -0.00000  -0.00000  -0.00000
  31       15D 0        0.00002   0.00045   0.00000  -0.00000   0.00000
  32       15D+1       -0.00000   0.00000  -0.00000  -0.00000   0.00000
  33       15D-1       -0.00000   0.00001  -0.00000   0.00000  -0.00000
  34       15D+2       -0.00000  -0.00000  -0.00000  -0.00000   0.00000
  35       15D-2       -0.00000  -0.00000   0.00000   0.00000   0.00000
  36       16D 0       -0.00003   0.00029   0.00000  -0.00000   0.00000
  37       16D+1        0.00000   0.00001   0.00000  -0.00000   0.00000
  38       16D-1        0.00000   0.00003  -0.00000   0.00000  -0.00000
  39       16D+2       -0.00000  -0.00000   0.00000  -0.00000   0.00000
  40       16D-2       -0.00000  -0.00000   0.00000   0.00000   0.00000
  41       17D 0       -0.00015  -0.00021   0.00000   0.00000   0.00000
  42       17D+1       -0.00000  -0.00000  -0.00000   0.00000  -0.00000
  43       17D-1       -0.00000  -0.00000  -0.00000  -0.00000  -0.00000
  44       17D+2        0.00000   0.00000   0.00000   0.00000  -0.00000
  45       17D-2       -0.00000  -0.00000  -0.00000   0.00000   0.00000
  46       18F 0       -0.00000  -0.00000   0.00030   0.00000  -0.00001
  47       18F+1       -0.00000  -0.00000   0.00000  -0.00023  -0.00005
  48       18F-1        0.00000   0.00000   0.00000   0.00005  -0.00023
  49       18F+2        0.00000   0.00000  -0.00000  -0.00000  -0.00001
  50       18F-2        0.00000   0.00000   0.00000  -0.00000   0.00000
  51       18F+3        0.00000   0.00000   0.00000  -0.00014   0.00010
  52       18F-3       -0.00000  -0.00000   0.00000   0.00010   0.00014
  53       19F 0        0.00000   0.00000  -0.00002   0.00000  -0.00000
  54       19F+1        0.00000   0.00000   0.00000   0.00055   0.00012
  55       19F-1       -0.00000  -0.00000   0.00002  -0.00012   0.00055
  56       19F+2       -0.00000  -0.00000   0.00000   0.00000   0.00001
  57       19F-2       -0.00000   0.00000  -0.00000   0.00000  -0.00000
  58       19F+3       -0.00000  -0.00000   0.00000  -0.00006   0.00004
  59       19F-3        0.00000   0.00000   0.00000   0.00004   0.00006
  60       20G 0       -0.00001   0.00005   0.00000   0.00000  -0.00000
  61       20G+1        0.00000   0.00000  -0.00000   0.00000   0.00000
  62       20G-1        0.00000   0.00000   0.00000  -0.00000   0.00000
  63       20G+2       -0.00000   0.00000   0.00000  -0.00000   0.00000
  64       20G-2        0.00000  -0.00000  -0.00000  -0.00000  -0.00000
  65       20G+3       -0.00000  -0.00000   0.00000   0.00000   0.00000
  66       20G-3       -0.00000  -0.00000   0.00000  -0.00000  -0.00000
  67       20G+4       -0.00002  -0.00008   0.00000   0.00000  -0.00000
  68       20G-4        0.00002   0.00008  -0.00000  -0.00000  -0.00000
  69 2   O  1S          0.00001   0.00001   0.00000  -0.00006  -0.00000
  70        2S          0.00005  -0.00001   0.00000  -0.00029  -0.00000
  71        3S         -0.00003  -0.00005   0.00000   0.00001   0.00000
  72        4S          0.00001   0.00052  -0.00000   0.00180   0.00002
  73        5PX         0.00001   0.00003  -0.00000  -0.00000  -0.00001
  74        5PY        -0.00000  -0.00001  -0.00000   0.00000  -0.00006
  75        5PZ         0.00000   0.00000  -0.00001   0.00000   0.00000
  76        6PX        -0.00001  -0.00001   0.00000  -0.00014   0.00009
  77        6PY         0.00000   0.00000   0.00001   0.00002   0.00045
  78        6PZ        -0.00000  -0.00000   0.00006  -0.00000  -0.00002
  79        7PX        -0.00001  -0.00017   0.00001  -0.00440   0.00032
  80        7PY         0.00000   0.00003   0.00004   0.00087   0.00180
  81        7PZ        -0.00000  -0.00000   0.00005   0.00000  -0.00006
  82        8D 0        0.00001   0.00003   0.00000  -0.00003  -0.00000
  83        8D+1       -0.00000   0.00000   0.00000   0.00000   0.00000
  84        8D-1        0.00000   0.00000  -0.00000   0.00000   0.00000
  85        8D+2       -0.00002  -0.00004   0.00000   0.00009   0.00002
  86        8D-2        0.00001   0.00002   0.00000  -0.00004   0.00005
  87        9D 0       -0.00005  -0.00013   0.00000  -0.00003  -0.00000
  88        9D+1        0.00000  -0.00000  -0.00004  -0.00000  -0.00001
  89        9D-1       -0.00000  -0.00000   0.00001  -0.00003  -0.00000
  90        9D+2        0.00008   0.00015  -0.00000  -0.00042  -0.00002
  91        9D-2       -0.00003  -0.00006  -0.00001   0.00017  -0.00003
  92       10F 0        0.00000   0.00000  -0.00000   0.00000   0.00000
  93       10F+1        0.00001   0.00002  -0.00000  -0.00001  -0.00001
  94       10F-1       -0.00000  -0.00000  -0.00000   0.00000  -0.00003
  95       10F+2        0.00000  -0.00000  -0.00001  -0.00000   0.00000
  96       10F-2        0.00000  -0.00000   0.00000  -0.00000  -0.00000
  97       10F+3       -0.00001  -0.00003  -0.00000  -0.00002   0.00000
  98       10F-3        0.00001   0.00002  -0.00000   0.00001   0.00001
  99 3   H  1S          0.00001   0.00000  -0.00000  -0.00004  -0.00013
 100        2S         -0.00004  -0.00012   0.00003   0.00081   0.00140
 101        3S         -0.00004  -0.00005   0.00001   0.00038   0.00042
 102        4PX        -0.00002  -0.00003   0.00000  -0.00003   0.00001
 103        4PY        -0.00001  -0.00002  -0.00000  -0.00005   0.00002
 104        4PZ         0.00000   0.00000   0.00001   0.00000  -0.00000
 105        5PX         0.00003   0.00006  -0.00001   0.00080  -0.00048
 106        5PY        -0.00002  -0.00006   0.00000   0.00050   0.00039
 107        5PZ         0.00000   0.00000  -0.00006  -0.00003  -0.00001
 108        6D 0        0.00001   0.00001  -0.00000   0.00003  -0.00005
 109        6D+1        0.00000   0.00000   0.00001  -0.00000   0.00000
 110        6D-1        0.00000   0.00000  -0.00000  -0.00001  -0.00000
 111        6D+2        0.00001   0.00002   0.00000  -0.00018  -0.00001
 112        6D-2       -0.00001  -0.00001  -0.00000   0.00014  -0.00008
 113 4   O  1S          0.00001   0.00001  -0.00000   0.00006   0.00000
 114        2S          0.00005  -0.00001  -0.00000   0.00029   0.00000
 115        3S         -0.00003  -0.00005  -0.00000  -0.00001  -0.00000
 116        4S          0.00001   0.00052   0.00000  -0.00180  -0.00001
 117        5PX        -0.00001  -0.00003  -0.00000  -0.00000  -0.00001
 118        5PY         0.00000   0.00001  -0.00000   0.00000  -0.00006
 119        5PZ         0.00000  -0.00000  -0.00001   0.00000   0.00000
 120        6PX         0.00001   0.00001   0.00000  -0.00014   0.00009
 121        6PY        -0.00000  -0.00000   0.00001   0.00003   0.00045
 122        6PZ         0.00000   0.00000   0.00006  -0.00000  -0.00002
 123        7PX         0.00001   0.00017   0.00001  -0.00440   0.00032
 124        7PY        -0.00000  -0.00004   0.00004   0.00087   0.00180
 125        7PZ         0.00000   0.00000   0.00005   0.00000  -0.00006
 126        8D 0        0.00001   0.00003  -0.00000   0.00003   0.00000
 127        8D+1       -0.00000   0.00000  -0.00000  -0.00000  -0.00000
 128        8D-1        0.00000   0.00000   0.00000  -0.00000  -0.00000
 129        8D+2       -0.00002  -0.00004  -0.00000  -0.00009  -0.00002
 130        8D-2        0.00001   0.00002  -0.00000   0.00004  -0.00005
 131        9D 0       -0.00005  -0.00013  -0.00000   0.00003   0.00000
 132        9D+1       -0.00000  -0.00000   0.00004   0.00000   0.00001
 133        9D-1       -0.00000  -0.00000  -0.00001   0.00002  -0.00000
 134        9D+2        0.00008   0.00015   0.00000   0.00042   0.00002
 135        9D-2       -0.00003  -0.00006   0.00001  -0.00018   0.00003
 136       10F 0       -0.00000  -0.00000  -0.00000   0.00000   0.00000
 137       10F+1       -0.00001  -0.00002  -0.00000  -0.00001  -0.00001
 138       10F-1        0.00000   0.00000  -0.00000   0.00000  -0.00003
 139       10F+2       -0.00000   0.00000  -0.00001  -0.00000   0.00000
 140       10F-2       -0.00000   0.00000   0.00000  -0.00000  -0.00000
 141       10F+3        0.00001   0.00003  -0.00000  -0.00002   0.00000
 142       10F-3       -0.00001  -0.00002  -0.00000   0.00001   0.00001
 143 5   H  1S          0.00000   0.00000   0.00000   0.00004   0.00013
 144        2S         -0.00004  -0.00012  -0.00003  -0.00082  -0.00140
 145        3S         -0.00004  -0.00005  -0.00001  -0.00038  -0.00042
 146        4PX         0.00002   0.00003   0.00000  -0.00003   0.00001
 147        4PY         0.00001   0.00002  -0.00000  -0.00005   0.00002
 148        4PZ        -0.00000  -0.00000   0.00001   0.00000  -0.00000
 149        5PX        -0.00003  -0.00006  -0.00001   0.00080  -0.00048
 150        5PY         0.00002   0.00006   0.00000   0.00050   0.00039
 151        5PZ        -0.00000  -0.00000  -0.00006  -0.00003  -0.00001
 152        6D 0        0.00001   0.00001   0.00000  -0.00003   0.00005
 153        6D+1        0.00000   0.00000  -0.00001   0.00000  -0.00000
 154        6D-1        0.00000   0.00000   0.00000   0.00001   0.00000
 155        6D+2        0.00001   0.00002  -0.00000   0.00018   0.00001
 156        6D-2       -0.00001  -0.00001   0.00000  -0.00014   0.00008
 157 6   O  1S          0.00001   0.00001   0.00000  -0.00000   0.00006
 158        2S          0.00005  -0.00001   0.00002  -0.00000   0.00029
 159        3S         -0.00003  -0.00005  -0.00000   0.00000  -0.00001
 160        4S          0.00001   0.00052  -0.00008   0.00001  -0.00180
 161        5PX        -0.00000  -0.00001  -0.00000  -0.00006  -0.00000
 162        5PY        -0.00001  -0.00003  -0.00000   0.00001  -0.00000
 163        5PZ        -0.00000   0.00000  -0.00001  -0.00000  -0.00000
 164        6PX         0.00000   0.00000  -0.00000   0.00046  -0.00002
 165        6PY         0.00001   0.00001  -0.00000  -0.00009  -0.00014
 166        6PZ        -0.00000  -0.00000   0.00006   0.00000   0.00000
 167        7PX         0.00000   0.00003  -0.00004   0.00180  -0.00087
 168        7PY         0.00001   0.00017  -0.00020  -0.00032  -0.00440
 169        7PZ        -0.00000   0.00000   0.00005   0.00000  -0.00001
 170        8D 0        0.00001   0.00003   0.00000  -0.00000   0.00003
 171        8D+1        0.00000   0.00000  -0.00000   0.00000  -0.00000
 172        8D-1        0.00000   0.00000  -0.00000  -0.00000  -0.00000
 173        8D+2        0.00002   0.00004   0.00000  -0.00002   0.00009
 174        8D-2       -0.00001  -0.00002  -0.00000  -0.00005  -0.00004
 175        9D 0       -0.00005  -0.00013   0.00000  -0.00000   0.00003
 176        9D+1        0.00000   0.00000   0.00001  -0.00001   0.00000
 177        9D-1        0.00000   0.00000   0.00004   0.00000   0.00000
 178        9D+2       -0.00008  -0.00015  -0.00002   0.00002  -0.00042
 179        9D-2        0.00003   0.00006   0.00001   0.00003   0.00017
 180       10F 0        0.00000   0.00000  -0.00000  -0.00000  -0.00000
 181       10F+1       -0.00000  -0.00000  -0.00000  -0.00003  -0.00000
 182       10F-1       -0.00001  -0.00002  -0.00000   0.00001  -0.00001
 183       10F+2        0.00000   0.00000   0.00001   0.00000   0.00000
 184       10F-2       -0.00000  -0.00000  -0.00000   0.00000  -0.00000
 185       10F+3       -0.00001  -0.00002   0.00000  -0.00001   0.00001
 186       10F-3       -0.00001  -0.00003   0.00000   0.00000   0.00002
 187 7   H  1S          0.00001   0.00000   0.00000   0.00013   0.00004
 188        2S         -0.00004  -0.00012  -0.00004  -0.00138  -0.00083
 189        3S         -0.00004  -0.00005  -0.00002  -0.00041  -0.00039
 190        4PX         0.00001   0.00003  -0.00000   0.00002  -0.00005
 191        4PY         0.00001   0.00002   0.00000   0.00000  -0.00001
 192        4PZ        -0.00000  -0.00000   0.00002   0.00000   0.00000
 193        5PX         0.00001   0.00003   0.00004   0.00016   0.00077
 194        5PY        -0.00003  -0.00008   0.00003  -0.00060   0.00054
 195        5PZ         0.00000  -0.00000  -0.00006  -0.00000  -0.00000
 196        6D 0        0.00001   0.00001  -0.00000   0.00005  -0.00003
 197        6D+1        0.00000   0.00000  -0.00000  -0.00000   0.00000
 198        6D-1        0.00000  -0.00000  -0.00001  -0.00000   0.00000
 199        6D+2       -0.00001  -0.00002  -0.00001   0.00005  -0.00022
 200        6D-2        0.00000   0.00001   0.00000   0.00006   0.00003
 201 8   O  1S          0.00001   0.00001  -0.00000   0.00000  -0.00006
 202        2S          0.00005  -0.00001  -0.00002   0.00000  -0.00029
 203        3S         -0.00003  -0.00005   0.00000  -0.00000   0.00001
 204        4S          0.00001   0.00052   0.00008  -0.00002   0.00180
 205        5PX         0.00000   0.00001  -0.00000  -0.00006  -0.00000
 206        5PY         0.00001   0.00003  -0.00000   0.00001  -0.00000
 207        5PZ         0.00000  -0.00000  -0.00001  -0.00000  -0.00000
 208        6PX        -0.00000  -0.00000  -0.00000   0.00046  -0.00003
 209        6PY        -0.00001  -0.00001  -0.00000  -0.00009  -0.00014
 210        6PZ         0.00000   0.00000   0.00006   0.00000   0.00000
 211        7PX        -0.00000  -0.00003  -0.00004   0.00180  -0.00087
 212        7PY        -0.00001  -0.00017  -0.00020  -0.00032  -0.00440
 213        7PZ         0.00000  -0.00000   0.00005   0.00000  -0.00001
 214        8D 0        0.00001   0.00003  -0.00000   0.00000  -0.00003
 215        8D+1        0.00000  -0.00000   0.00000  -0.00000   0.00000
 216        8D-1        0.00000   0.00000   0.00000   0.00000   0.00000
 217        8D+2        0.00002   0.00004  -0.00000   0.00002  -0.00009
 218        8D-2       -0.00001  -0.00002   0.00000   0.00005   0.00004
 219        9D 0       -0.00005  -0.00013  -0.00000   0.00000  -0.00003
 220        9D+1        0.00000   0.00000  -0.00001   0.00001  -0.00000
 221        9D-1        0.00000   0.00000  -0.00004  -0.00000  -0.00000
 222        9D+2       -0.00008  -0.00015   0.00002  -0.00002   0.00042
 223        9D-2        0.00003   0.00006  -0.00001  -0.00003  -0.00017
 224       10F 0       -0.00000   0.00000  -0.00000  -0.00000  -0.00000
 225       10F+1        0.00000   0.00000  -0.00000  -0.00003  -0.00000
 226       10F-1        0.00001   0.00002  -0.00000   0.00001  -0.00001
 227       10F+2       -0.00000  -0.00000   0.00001   0.00000   0.00000
 228       10F-2        0.00000   0.00000  -0.00000   0.00000  -0.00000
 229       10F+3        0.00001   0.00002   0.00000  -0.00001   0.00001
 230       10F-3        0.00001   0.00003   0.00000   0.00000   0.00002
 231 9   H  1S          0.00001   0.00000  -0.00000  -0.00013  -0.00004
 232        2S         -0.00004  -0.00012   0.00004   0.00138   0.00083
 233        3S         -0.00004  -0.00005   0.00002   0.00041   0.00039
 234        4PX        -0.00001  -0.00003  -0.00000   0.00002  -0.00005
 235        4PY        -0.00001  -0.00002   0.00000   0.00000  -0.00001
 236        4PZ         0.00000   0.00000   0.00002   0.00000   0.00000
 237        5PX        -0.00001  -0.00003   0.00004   0.00016   0.00077
 238        5PY         0.00003   0.00008   0.00003  -0.00060   0.00054
 239        5PZ        -0.00000   0.00000  -0.00006  -0.00000  -0.00000
 240        6D 0        0.00001   0.00001   0.00000  -0.00005   0.00003
 241        6D+1        0.00000   0.00000   0.00000   0.00000  -0.00000
 242        6D-1        0.00000  -0.00000   0.00001   0.00000  -0.00000
 243        6D+2       -0.00001  -0.00002   0.00001  -0.00005   0.00022
 244        6D-2        0.00000   0.00001  -0.00000  -0.00006  -0.00003
 245 10  H  1S          0.00001   0.00000  -0.00000   0.00013  -0.00004
 246        2S         -0.00004  -0.00012   0.00004  -0.00140   0.00081
 247        3S         -0.00004  -0.00005   0.00002  -0.00042   0.00038
 248        4PX         0.00001   0.00002   0.00000   0.00002   0.00005
 249        4PY        -0.00002  -0.00003  -0.00000  -0.00001  -0.00003
 250        4PZ         0.00000   0.00000   0.00002  -0.00000   0.00000
 251        5PX         0.00002   0.00006  -0.00002   0.00039  -0.00050
 252        5PY         0.00003   0.00006   0.00004   0.00048   0.00080
 253        5PZ        -0.00000   0.00000  -0.00006   0.00000  -0.00001
 254        6D 0        0.00001   0.00001   0.00000   0.00005   0.00003
 255        6D+1       -0.00000  -0.00000   0.00000  -0.00000   0.00000
 256        6D-1        0.00000   0.00000   0.00001  -0.00000  -0.00000
 257        6D+2       -0.00001  -0.00002   0.00001  -0.00001   0.00018
 258        6D-2        0.00001   0.00001  -0.00001  -0.00008  -0.00014
 259 11  H  1S          0.00001   0.00000  -0.00000   0.00004  -0.00013
 260        2S         -0.00004  -0.00012   0.00003  -0.00083   0.00138
 261        3S         -0.00004  -0.00005   0.00001  -0.00039   0.00041
 262        4PX         0.00001   0.00002  -0.00000  -0.00001  -0.00000
 263        4PY        -0.00001  -0.00003  -0.00000   0.00005   0.00002
 264        4PZ         0.00000   0.00000   0.00001  -0.00000  -0.00000
 265        5PX        -0.00003  -0.00008   0.00001   0.00054   0.00060
 266        5PY        -0.00001  -0.00003   0.00000  -0.00077   0.00016
 267        5PZ         0.00000   0.00000  -0.00006   0.00003  -0.00001
 268        6D 0        0.00001   0.00001  -0.00000  -0.00003  -0.00005
 269        6D+1        0.00000   0.00000  -0.00001  -0.00000  -0.00000
 270        6D-1        0.00000   0.00000   0.00000   0.00001  -0.00000
 271        6D+2        0.00001   0.00002   0.00000   0.00022   0.00005
 272        6D-2       -0.00000  -0.00001   0.00000  -0.00003   0.00006
 273 12  H  1S          0.00001   0.00000   0.00000  -0.00004   0.00013
 274        2S         -0.00004  -0.00012  -0.00003   0.00083  -0.00138
 275        3S         -0.00004  -0.00005  -0.00001   0.00039  -0.00041
 276        4PX        -0.00001  -0.00002  -0.00000  -0.00001  -0.00000
 277        4PY         0.00001   0.00003  -0.00000   0.00005   0.00002
 278        4PZ        -0.00000  -0.00000   0.00001  -0.00000   0.00000
 279        5PX         0.00003   0.00008   0.00001   0.00054   0.00060
 280        5PY         0.00001   0.00003  -0.00000  -0.00077   0.00016
 281        5PZ        -0.00000  -0.00000  -0.00006   0.00003  -0.00001
 282        6D 0        0.00001   0.00001   0.00000   0.00003   0.00005
 283        6D+1        0.00000   0.00000   0.00001   0.00000   0.00000
 284        6D-1        0.00000   0.00000  -0.00000  -0.00001   0.00000
 285        6D+2        0.00001   0.00002  -0.00000  -0.00022  -0.00005
 286        6D-2       -0.00000  -0.00001   0.00000   0.00003  -0.00006
 287 13  H  1S          0.00001   0.00000   0.00000  -0.00013   0.00004
 288        2S         -0.00004  -0.00012  -0.00004   0.00140  -0.00081
 289        3S         -0.00004  -0.00005  -0.00002   0.00042  -0.00038
 290        4PX        -0.00001  -0.00002   0.00000   0.00002   0.00005
 291        4PY         0.00002   0.00003  -0.00000  -0.00001  -0.00003
 292        4PZ        -0.00000  -0.00000   0.00002  -0.00000   0.00000
 293        5PX        -0.00002  -0.00006  -0.00002   0.00039  -0.00050
 294        5PY        -0.00003  -0.00006   0.00004   0.00048   0.00080
 295        5PZ         0.00000  -0.00000  -0.00006   0.00000  -0.00000
 296        6D 0        0.00001   0.00001  -0.00000  -0.00005  -0.00003
 297        6D+1       -0.00000  -0.00000  -0.00000   0.00000  -0.00000
 298        6D-1        0.00000   0.00000  -0.00001   0.00000   0.00000
 299        6D+2       -0.00001  -0.00002  -0.00001   0.00001  -0.00018
 300        6D-2        0.00001   0.00001   0.00001   0.00008   0.00014
                           6         7         8         9        10
                           O         O         O         O         O
     Eigenvalues --   -19.19461 -19.19461 -19.19461 -19.19459  -3.13073
   1 1   Cr 1S         -0.00000  -0.00001  -0.00000  -0.00000   0.10969
   2        2S         -0.00052  -0.00070  -0.00011  -0.00049  -0.34546
   3        3S         -0.00040  -0.00053  -0.00008  -0.00037   1.10063
   4        4S          0.00131   0.00176   0.00027   0.00122  -0.00582
   5        5S          0.00045   0.00060   0.00009   0.00042   0.16211
   6        6S          0.00104   0.00139   0.00021   0.00097  -0.15319
   7        7S          0.00013   0.00018   0.00003   0.00012  -0.00143
   8        8PX         0.00000  -0.00000   0.00000   0.00000  -0.00000
   9        8PY        -0.00000  -0.00000  -0.00000   0.00000   0.00000
  10        8PZ        -0.00000   0.00000   0.00000  -0.00000   0.00000
  11        9PX        -0.00034   0.00032  -0.00011  -0.00007   0.00000
  12        9PY         0.00008   0.00012   0.00033  -0.00033  -0.00000
  13        9PZ        -0.00000   0.00000  -0.00000   0.00000   0.00000
  14       10PX        -0.00214   0.00201  -0.00069  -0.00044   0.00000
  15       10PY         0.00049   0.00077   0.00204  -0.00208  -0.00000
  16       10PZ        -0.00000  -0.00000  -0.00000   0.00000   0.00000
  17       11PX        -0.00058   0.00055  -0.00019  -0.00012  -0.00000
  18       11PY         0.00013   0.00021   0.00055  -0.00056   0.00000
  19       11PZ         0.00000  -0.00000  -0.00000   0.00000  -0.00000
  20       12PX        -0.00004   0.00003  -0.00001  -0.00001  -0.00000
  21       12PY         0.00001   0.00001   0.00003  -0.00004   0.00000
  22       12PZ        -0.00000   0.00000   0.00000  -0.00000   0.00000
  23       13PX         0.00015  -0.00014   0.00005   0.00003  -0.00000
  24       13PY        -0.00003  -0.00005  -0.00014   0.00014  -0.00000
  25       13PZ        -0.00000  -0.00000  -0.00000   0.00000  -0.00000
  26       14D 0       -0.00000  -0.00000  -0.00000  -0.00000   0.00105
  27       14D+1        0.00000   0.00000  -0.00000   0.00000   0.00002
  28       14D-1        0.00000   0.00000  -0.00000   0.00000   0.00010
  29       14D+2       -0.00001  -0.00000   0.00001   0.00001  -0.00000
  30       14D-2        0.00000   0.00000  -0.00000  -0.00000   0.00000
  31       15D 0       -0.00050  -0.00066  -0.00010  -0.00046   0.00258
  32       15D+1        0.00000  -0.00000  -0.00000  -0.00000  -0.00001
  33       15D-1       -0.00000  -0.00001   0.00000  -0.00000  -0.00005
  34       15D+2        0.00098   0.00028  -0.00149  -0.00113   0.00000
  35       15D-2       -0.00041  -0.00012   0.00062   0.00047  -0.00000
  36       16D 0        0.00001   0.00001   0.00000   0.00001   0.00167
  37       16D+1       -0.00000  -0.00000   0.00000  -0.00000   0.00003
  38       16D-1       -0.00000  -0.00000   0.00000  -0.00000   0.00018
  39       16D+2       -0.00001  -0.00000   0.00002   0.00001  -0.00000
  40       16D-2        0.00001   0.00000  -0.00001  -0.00001   0.00000
  41       17D 0       -0.00034  -0.00046  -0.00007  -0.00032   0.00186
  42       17D+1       -0.00000  -0.00000   0.00000   0.00000   0.00000
  43       17D-1       -0.00001  -0.00000   0.00001   0.00000   0.00001
  44       17D+2       -0.00015  -0.00004   0.00022   0.00017  -0.00000
  45       17D-2        0.00006   0.00002  -0.00009  -0.00007  -0.00000
  46       18F 0        0.00000   0.00000   0.00000  -0.00000   0.00000
  47       18F+1        0.00005  -0.00005   0.00002   0.00001  -0.00000
  48       18F-1       -0.00001  -0.00002  -0.00005   0.00005  -0.00000
  49       18F+2        0.00000  -0.00000   0.00000  -0.00000   0.00000
  50       18F-2        0.00000  -0.00000   0.00000   0.00000  -0.00000
  51       18F+3       -0.00004   0.00002  -0.00004   0.00003   0.00000
  52       18F-3        0.00003  -0.00004  -0.00002   0.00004  -0.00000
  53       19F 0       -0.00000  -0.00000  -0.00000   0.00000  -0.00000
  54       19F+1       -0.00033   0.00031  -0.00011  -0.00007   0.00000
  55       19F-1        0.00007   0.00012   0.00031  -0.00032   0.00000
  56       19F+2       -0.00000   0.00000  -0.00000   0.00000  -0.00000
  57       19F-2       -0.00000   0.00000  -0.00000  -0.00000  -0.00000
  58       19F+3        0.00032  -0.00015   0.00033  -0.00020  -0.00000
  59       19F-3       -0.00020   0.00034   0.00016  -0.00030  -0.00000
  60       20G 0        0.00005   0.00006   0.00001   0.00004   0.00427
  61       20G+1       -0.00000   0.00000  -0.00000  -0.00000   0.00002
  62       20G-1        0.00000   0.00000  -0.00000  -0.00000   0.00014
  63       20G+2       -0.00006  -0.00002   0.00009   0.00007   0.00000
  64       20G-2        0.00002   0.00001  -0.00004  -0.00003  -0.00000
  65       20G+3        0.00000   0.00000  -0.00000  -0.00000  -0.00006
  66       20G-3        0.00000   0.00000  -0.00000  -0.00000  -0.00009
  67       20G+4        0.00006   0.00008   0.00001   0.00006  -0.00194
  68       20G-4       -0.00006  -0.00008  -0.00001  -0.00006   0.00197
  69 2   O  1S          0.97207  -0.00852  -0.04458  -0.01762  -0.00148
  70        2S         -0.00725   0.00014   0.00030   0.00014   0.00219
  71        3S          0.05115  -0.00047  -0.00231  -0.00091   0.00023
  72        4S          0.00443  -0.00109  -0.00050  -0.00091   0.00748
  73        5PX         0.00104   0.00002  -0.00005  -0.00001  -0.00137
  74        5PY        -0.00021   0.00000   0.00002  -0.00001   0.00028
  75        5PZ        -0.00000  -0.00000  -0.00000   0.00000  -0.00000
  76        6PX         0.00137  -0.00018  -0.00013  -0.00012  -0.00214
  77        6PY        -0.00028  -0.00004  -0.00009   0.00016   0.00043
  78        6PZ        -0.00000   0.00000   0.00001  -0.00001  -0.00000
  79        7PX         0.00298  -0.00049  -0.00064  -0.00058  -0.00290
  80        7PY        -0.00061  -0.00014  -0.00025   0.00055   0.00058
  81        7PZ        -0.00000   0.00001   0.00001  -0.00001  -0.00000
  82        8D 0       -0.00029  -0.00000  -0.00000  -0.00001  -0.00001
  83        8D+1       -0.00000  -0.00000  -0.00000   0.00000   0.00000
  84        8D-1       -0.00001  -0.00000   0.00000  -0.00000   0.00000
  85        8D+2        0.00009  -0.00000  -0.00000  -0.00002   0.00004
  86        8D-2       -0.00004   0.00001   0.00002  -0.00001  -0.00002
  87        9D 0       -0.00016   0.00004   0.00010   0.00010  -0.00137
  88        9D+1       -0.00001   0.00001   0.00001  -0.00001  -0.00000
  89        9D-1       -0.00005   0.00000   0.00000   0.00001  -0.00001
  90        9D+2       -0.00091   0.00004  -0.00001   0.00015   0.00179
  91        9D-2        0.00038  -0.00013  -0.00018   0.00015  -0.00075
  92       10F 0        0.00000  -0.00000  -0.00000   0.00000   0.00000
  93       10F+1       -0.00013   0.00002   0.00000   0.00000   0.00029
  94       10F-1        0.00003   0.00001   0.00002  -0.00002  -0.00006
  95       10F+2       -0.00001   0.00000   0.00000   0.00000  -0.00000
  96       10F-2       -0.00002   0.00000   0.00000   0.00000  -0.00000
  97       10F+3       -0.00023  -0.00001   0.00001   0.00002  -0.00036
  98       10F-3        0.00016  -0.00001  -0.00003   0.00001   0.00024
  99 3   H  1S          0.00036  -0.00001  -0.00003  -0.00001   0.00002
 100        2S         -0.00335   0.00020   0.00007   0.00101  -0.00102
 101        3S         -0.00057  -0.00001   0.00005  -0.00006   0.00072
 102        4PX         0.00032  -0.00002  -0.00001  -0.00005  -0.00012
 103        4PY        -0.00030  -0.00001  -0.00000   0.00005  -0.00016
 104        4PZ         0.00001   0.00000   0.00000  -0.00000   0.00001
 105        5PX         0.00084   0.00003   0.00001  -0.00011   0.00035
 106        5PY        -0.00161   0.00010   0.00000   0.00042  -0.00050
 107        5PZ         0.00005  -0.00001  -0.00000  -0.00002   0.00002
 108        6D 0        0.00055  -0.00000  -0.00002  -0.00004   0.00009
 109        6D+1       -0.00003   0.00000   0.00000   0.00000   0.00000
 110        6D-1        0.00004  -0.00000  -0.00000  -0.00000   0.00001
 111        6D+2        0.00045   0.00000   0.00000  -0.00005   0.00017
 112        6D-2        0.00101  -0.00002  -0.00003  -0.00006  -0.00006
 113 4   O  1S         -0.01775   0.81406  -0.53242  -0.02826  -0.00148
 114        2S          0.00022  -0.00606   0.00397   0.00022   0.00219
 115        3S         -0.00097   0.04285  -0.02800  -0.00147   0.00023
 116        4S         -0.00082   0.00328  -0.00309  -0.00097   0.00748
 117        5PX        -0.00000  -0.00088   0.00056   0.00002   0.00137
 118        5PY         0.00000   0.00018  -0.00011  -0.00001  -0.00028
 119        5PZ        -0.00000   0.00000  -0.00000   0.00000  -0.00000
 120        6PX         0.00014  -0.00110   0.00082   0.00019   0.00214
 121        6PY        -0.00003   0.00015  -0.00028   0.00010  -0.00043
 122        6PZ         0.00000   0.00001   0.00001  -0.00001   0.00000
 123        7PX         0.00018  -0.00223   0.00206   0.00078   0.00289
 124        7PY        -0.00005   0.00021  -0.00080   0.00028  -0.00059
 125        7PZ         0.00000   0.00001   0.00001  -0.00001   0.00000
 126        8D 0        0.00001  -0.00025   0.00015  -0.00001  -0.00001
 127        8D+1        0.00000  -0.00000   0.00000  -0.00000   0.00000
 128        8D-1        0.00000  -0.00001   0.00001   0.00000   0.00000
 129        8D+2       -0.00001   0.00007  -0.00006  -0.00000   0.00004
 130        8D-2        0.00000  -0.00004   0.00001   0.00002  -0.00002
 131        9D 0       -0.00001  -0.00008   0.00017   0.00010  -0.00137
 132        9D+1        0.00000  -0.00001   0.00000   0.00001  -0.00000
 133        9D-1        0.00000  -0.00004   0.00003   0.00000  -0.00001
 134        9D+2        0.00008  -0.00069   0.00061   0.00001   0.00179
 135        9D-2       -0.00003   0.00040  -0.00007  -0.00022  -0.00075
 136       10F 0       -0.00000  -0.00000  -0.00000   0.00000  -0.00000
 137       10F+1       -0.00002   0.00011  -0.00007  -0.00001  -0.00029
 138       10F-1        0.00001  -0.00001   0.00003  -0.00002   0.00006
 139       10F+2       -0.00000   0.00001  -0.00000  -0.00000   0.00000
 140       10F-2       -0.00000   0.00002  -0.00001  -0.00000   0.00000
 141       10F+3        0.00000   0.00018  -0.00015   0.00000   0.00036
 142       10F-3       -0.00000  -0.00014   0.00007   0.00003  -0.00024
 143 5   H  1S         -0.00000   0.00030  -0.00020  -0.00003   0.00002
 144        2S          0.00027  -0.00229   0.00263   0.00015  -0.00102
 145        3S         -0.00002  -0.00051   0.00025   0.00003   0.00072
 146        4PX         0.00003  -0.00024   0.00021   0.00002   0.00012
 147        4PY        -0.00000   0.00022  -0.00020   0.00001   0.00016
 148        4PZ        -0.00000  -0.00000   0.00001  -0.00000  -0.00001
 149        5PX         0.00001  -0.00065   0.00054  -0.00004  -0.00035
 150        5PY        -0.00015   0.00114  -0.00121  -0.00005   0.00050
 151        5PZ         0.00001  -0.00004   0.00004   0.00001  -0.00002
 152        6D 0       -0.00001   0.00044  -0.00033  -0.00001   0.00009
 153        6D+1        0.00000  -0.00003   0.00002   0.00000   0.00000
 154        6D-1       -0.00000   0.00003  -0.00003  -0.00000   0.00001
 155        6D+2       -0.00002   0.00035  -0.00028   0.00001   0.00017
 156        6D-2       -0.00003   0.00082  -0.00059  -0.00002  -0.00006
 157 6   O  1S          0.04222   0.53317   0.81304   0.01425  -0.00148
 158        2S         -0.00030  -0.00396  -0.00607  -0.00002   0.00219
 159        3S          0.00224   0.02807   0.04277   0.00071   0.00023
 160        4S         -0.00064   0.00175   0.00426  -0.00059   0.00748
 161        5PX        -0.00002  -0.00011  -0.00018  -0.00001   0.00028
 162        5PY        -0.00006  -0.00058  -0.00086  -0.00004   0.00137
 163        5PZ        -0.00000  -0.00001  -0.00001  -0.00000   0.00000
 164        6PX         0.00015  -0.00024  -0.00018   0.00002   0.00043
 165        6PY         0.00003  -0.00063  -0.00124   0.00008   0.00214
 166        6PZ         0.00000  -0.00001  -0.00001   0.00000  -0.00001
 167        7PX         0.00052  -0.00059  -0.00037   0.00001   0.00058
 168        7PY         0.00037  -0.00108  -0.00292   0.00002   0.00290
 169        7PZ        -0.00000  -0.00001  -0.00001   0.00000  -0.00002
 170        8D 0       -0.00003  -0.00017  -0.00023   0.00000  -0.00001
 171        8D+1        0.00000   0.00000   0.00000   0.00000  -0.00000
 172        8D-1        0.00000   0.00000   0.00000   0.00000  -0.00000
 173        8D+2        0.00001  -0.00005  -0.00008   0.00000  -0.00004
 174        8D-2        0.00002   0.00000   0.00004  -0.00000   0.00002
 175        9D 0        0.00009  -0.00001  -0.00020  -0.00003  -0.00137
 176        9D+1       -0.00000   0.00000   0.00000  -0.00000   0.00000
 177        9D-1       -0.00000   0.00000   0.00000  -0.00000   0.00000
 178        9D+2       -0.00010   0.00052   0.00076  -0.00004  -0.00179
 179        9D-2       -0.00018  -0.00003  -0.00043   0.00001   0.00075
 180       10F 0        0.00000   0.00000   0.00000  -0.00000   0.00000
 181       10F+1       -0.00002   0.00003   0.00001  -0.00000  -0.00006
 182       10F-1        0.00000   0.00006   0.00011  -0.00002  -0.00029
 183       10F+2        0.00000  -0.00000  -0.00000  -0.00000   0.00000
 184       10F-2        0.00000   0.00000   0.00000   0.00000  -0.00000
 185       10F+3       -0.00003  -0.00007  -0.00015  -0.00001  -0.00024
 186       10F-3        0.00001  -0.00014  -0.00019  -0.00001  -0.00036
 187 7   H  1S          0.00000   0.00020   0.00030   0.00001   0.00002
 188        2S         -0.00012  -0.00104  -0.00334   0.00009  -0.00103
 189        3S         -0.00001  -0.00037  -0.00044  -0.00003   0.00072
 190        4PX         0.00003   0.00006   0.00014   0.00001   0.00019
 191        4PY        -0.00002  -0.00017  -0.00038   0.00001   0.00005
 192        4PZ        -0.00000  -0.00000  -0.00000  -0.00000  -0.00000
 193        5PX         0.00003   0.00037   0.00116  -0.00007   0.00033
 194        5PY        -0.00013  -0.00057  -0.00130   0.00000  -0.00052
 195        5PZ         0.00000  -0.00000  -0.00001   0.00000   0.00000
 196        6D 0        0.00003   0.00028   0.00048   0.00001   0.00009
 197        6D+1        0.00000   0.00000   0.00001   0.00000   0.00000
 198        6D-1        0.00000  -0.00001  -0.00001  -0.00000  -0.00000
 199        6D+2        0.00001   0.00022   0.00034   0.00000  -0.00016
 200        6D-2        0.00007   0.00051   0.00090  -0.00000   0.00008
 201 8   O  1S          0.01647   0.01571  -0.02815   0.97261  -0.00148
 202        2S         -0.00011  -0.00006   0.00027  -0.00725   0.00219
 203        3S          0.00089   0.00082  -0.00152   0.05118   0.00023
 204        4S         -0.00078  -0.00100  -0.00021   0.00451   0.00748
 205        5PX        -0.00000   0.00001  -0.00001   0.00021  -0.00028
 206        5PY         0.00003   0.00004  -0.00002   0.00104  -0.00137
 207        5PZ         0.00000   0.00000  -0.00000   0.00001  -0.00000
 208        6PX         0.00012  -0.00014   0.00006   0.00028  -0.00043
 209        6PY        -0.00013  -0.00011  -0.00007   0.00138  -0.00214
 210        6PZ        -0.00000  -0.00000  -0.00000   0.00002   0.00001
 211        7PX         0.00032  -0.00046   0.00025   0.00062  -0.00058
 212        7PY        -0.00063  -0.00043   0.00015   0.00304  -0.00290
 213        7PZ         0.00000   0.00000  -0.00000   0.00002   0.00002
 214        8D 0       -0.00002  -0.00001   0.00002  -0.00029  -0.00001
 215        8D+1        0.00000   0.00000  -0.00000   0.00000  -0.00000
 216        8D-1        0.00000   0.00000  -0.00000   0.00000  -0.00000
 217        8D+2       -0.00000   0.00001  -0.00000  -0.00009  -0.00004
 218        8D-2       -0.00002   0.00001  -0.00001   0.00004   0.00002
 219        9D 0        0.00009   0.00007  -0.00007  -0.00017  -0.00137
 220        9D+1        0.00000  -0.00000   0.00000   0.00000   0.00000
 221        9D-1       -0.00000  -0.00000   0.00000   0.00000   0.00000
 222        9D+2        0.00004  -0.00013   0.00000   0.00092  -0.00179
 223        9D-2        0.00021  -0.00013   0.00011  -0.00038   0.00075
 224       10F 0       -0.00000   0.00000   0.00000  -0.00000  -0.00000
 225       10F+1       -0.00002   0.00002  -0.00001  -0.00003   0.00006
 226       10F-1        0.00001   0.00001   0.00002  -0.00013   0.00029
 227       10F+2        0.00000  -0.00000   0.00000   0.00000  -0.00000
 228       10F-2        0.00000  -0.00000   0.00000  -0.00000   0.00000
 229       10F+3       -0.00002   0.00002  -0.00001   0.00016   0.00024
 230       10F-3        0.00001  -0.00001   0.00001   0.00023   0.00036
 231 9   H  1S          0.00000  -0.00000   0.00000   0.00036   0.00002
 232        2S          0.00090   0.00006   0.00017  -0.00338  -0.00103
 233        3S         -0.00008  -0.00001  -0.00001  -0.00056   0.00072
 234        4PX         0.00002  -0.00003   0.00001  -0.00015  -0.00019
 235        4PY        -0.00006   0.00000  -0.00002   0.00041  -0.00005
 236        4PZ        -0.00000   0.00000  -0.00000   0.00000   0.00000
 237        5PX         0.00031   0.00005   0.00009  -0.00118  -0.00033
 238        5PY        -0.00022   0.00006  -0.00009   0.00140   0.00052
 239        5PZ        -0.00000  -0.00000   0.00000   0.00002  -0.00000
 240        6D 0       -0.00002   0.00001  -0.00002   0.00055   0.00009
 241        6D+1       -0.00000   0.00000  -0.00000   0.00001   0.00000
 242        6D-1        0.00000   0.00000   0.00000  -0.00001  -0.00000
 243        6D+2        0.00001  -0.00000  -0.00001   0.00040  -0.00016
 244        6D-2       -0.00005   0.00003  -0.00005   0.00103   0.00008
 245 10  H  1S         -0.00001   0.00001  -0.00001   0.00036   0.00002
 246        2S         -0.00003   0.00083  -0.00029  -0.00339  -0.00102
 247        3S          0.00000  -0.00008   0.00003  -0.00056   0.00072
 248        4PX         0.00003  -0.00003   0.00002   0.00030   0.00016
 249        4PY        -0.00000  -0.00004   0.00000   0.00032  -0.00012
 250        4PZ         0.00000  -0.00000   0.00000   0.00000   0.00000
 251        5PX         0.00003  -0.00036   0.00008   0.00163   0.00051
 252        5PY         0.00008  -0.00006   0.00003   0.00084   0.00035
 253        5PZ        -0.00000  -0.00000   0.00000   0.00002  -0.00000
 254        6D 0        0.00001  -0.00002   0.00000   0.00055   0.00009
 255        6D+1       -0.00000   0.00000  -0.00000  -0.00002  -0.00000
 256        6D-1        0.00000   0.00000   0.00000  -0.00001   0.00000
 257        6D+2       -0.00003   0.00003  -0.00000  -0.00045  -0.00017
 258        6D-2       -0.00003   0.00003   0.00002  -0.00101   0.00006
 259 11  H  1S         -0.00000   0.00029  -0.00021  -0.00001   0.00002
 260        2S          0.00024  -0.00278   0.00183   0.00105  -0.00103
 261        3S         -0.00001  -0.00047   0.00032  -0.00005   0.00072
 262        4PX         0.00002  -0.00034   0.00022   0.00007   0.00005
 263        4PY        -0.00001  -0.00014   0.00006   0.00003  -0.00019
 264        4PZ         0.00000   0.00001  -0.00000  -0.00000   0.00001
 265        5PX         0.00006  -0.00120   0.00070   0.00028  -0.00052
 266        5PY         0.00012  -0.00096   0.00064   0.00036  -0.00033
 267        5PZ        -0.00001   0.00005  -0.00003  -0.00002   0.00002
 268        6D 0       -0.00001   0.00046  -0.00030  -0.00005   0.00009
 269        6D+1       -0.00000   0.00004  -0.00003  -0.00001   0.00000
 270        6D-1       -0.00000   0.00002  -0.00001  -0.00000   0.00001
 271        6D+2        0.00001  -0.00033   0.00023   0.00001   0.00016
 272        6D-2        0.00004  -0.00088   0.00054   0.00009  -0.00008
 273 12  H  1S          0.00036  -0.00000  -0.00002  -0.00002   0.00002
 274        2S         -0.00332   0.00069   0.00086   0.00011  -0.00103
 275        3S         -0.00057  -0.00005  -0.00002   0.00002   0.00072
 276        4PX         0.00041  -0.00005  -0.00006  -0.00001  -0.00005
 277        4PY         0.00015  -0.00001  -0.00004   0.00002   0.00019
 278        4PZ        -0.00001   0.00000   0.00000  -0.00000  -0.00001
 279        5PX         0.00139  -0.00017  -0.00025   0.00003   0.00052
 280        5PY         0.00116  -0.00027  -0.00027  -0.00004   0.00033
 281        5PZ        -0.00006   0.00001   0.00001   0.00001  -0.00002
 282        6D 0        0.00055  -0.00002  -0.00005  -0.00001   0.00009
 283        6D+1        0.00005  -0.00000  -0.00001  -0.00000   0.00000
 284        6D-1        0.00003  -0.00000  -0.00000   0.00000   0.00001
 285        6D+2       -0.00040   0.00001   0.00002   0.00002   0.00016
 286        6D-2       -0.00103   0.00006   0.00009  -0.00000  -0.00008
 287 13  H  1S          0.00001   0.00019   0.00031   0.00001   0.00002
 288        2S          0.00081  -0.00182  -0.00288   0.00010  -0.00102
 289        3S         -0.00009  -0.00030  -0.00047  -0.00003   0.00072
 290        4PX         0.00004  -0.00018  -0.00024  -0.00001  -0.00016
 291        4PY         0.00003  -0.00017  -0.00027   0.00001   0.00012
 292        4PZ         0.00000  -0.00000  -0.00000  -0.00000  -0.00000
 293        5PX         0.00032  -0.00089  -0.00137   0.00007  -0.00051
 294        5PY         0.00006  -0.00051  -0.00067  -0.00002  -0.00035
 295        5PZ         0.00000  -0.00001  -0.00002   0.00000   0.00000
 296        6D 0       -0.00001   0.00031   0.00046   0.00001   0.00009
 297        6D+1        0.00000  -0.00001  -0.00001  -0.00000  -0.00000
 298        6D-1        0.00000  -0.00000  -0.00001  -0.00000   0.00000
 299        6D+2        0.00002  -0.00027  -0.00037   0.00000  -0.00017
 300        6D-2        0.00000  -0.00056  -0.00084  -0.00000   0.00006
                          11        12        13        14        15
                           O         O         O         O         O
     Eigenvalues --    -2.10551  -2.10337  -2.10323  -1.37112  -1.35474
   1 1   Cr 1S          0.00000   0.00000  -0.00000  -0.00870   0.00000
   2        2S          0.00000  -0.00000   0.00000   0.01188  -0.00000
   3        3S          0.00001   0.00001  -0.00001  -0.11804   0.00004
   4        4S          0.00001   0.00000  -0.00000  -0.01617   0.00001
   5        5S         -0.00000   0.00000   0.00000  -0.00576   0.00000
   6        6S         -0.00001  -0.00000   0.00000   0.03242  -0.00001
   7        7S         -0.00000   0.00000  -0.00000  -0.00353   0.00000
   8        8PX         0.01621   0.34348   0.05788   0.00001   0.01035
   9        8PY         0.08716  -0.06010   0.33224  -0.00003   0.00390
  10        8PZ         0.34084  -0.00098  -0.08954   0.00001   0.00000
  11        9PX        -0.02244  -0.47581  -0.08019  -0.00002  -0.01372
  12        9PY        -0.12070   0.08325  -0.46025   0.00004  -0.00517
  13        9PZ        -0.47051   0.00136   0.12370  -0.00001   0.00000
  14       10PX         0.00166   0.03598   0.00607   0.00000  -0.00308
  15       10PY         0.00893  -0.00629   0.03486   0.00001  -0.00117
  16       10PZ         0.03529  -0.00010  -0.00932   0.00000  -0.00001
  17       11PX         0.00039   0.00811   0.00136   0.00000  -0.00261
  18       11PY         0.00210  -0.00142   0.00783   0.00001  -0.00099
  19       11PZ         0.00481  -0.00001  -0.00124  -0.00001  -0.00001
  20       12PX         0.02932   0.62138   0.10471   0.00002   0.02100
  21       12PY         0.15771  -0.10873   0.60104  -0.00006   0.00790
  22       12PZ         0.61811  -0.00178  -0.16233   0.00003   0.00000
  23       13PX        -0.00002  -0.00049  -0.00008   0.00000   0.00091
  24       13PY        -0.00013   0.00008  -0.00047  -0.00000   0.00034
  25       13PZ        -0.00043   0.00000   0.00011   0.00000   0.00000
  26       14D 0        0.00000   0.00000  -0.00000  -0.02139   0.00001
  27       14D+1       -0.00000  -0.00000  -0.00000  -0.00001  -0.00001
  28       14D-1        0.00000   0.00000  -0.00000  -0.00005  -0.00007
  29       14D+2       -0.00000  -0.00000  -0.00000   0.00001   0.02832
  30       14D-2        0.00000   0.00000   0.00000  -0.00000  -0.01185
  31       15D 0       -0.00000  -0.00000  -0.00000  -0.00001  -0.00000
  32       15D+1        0.00000   0.00000   0.00000   0.00000  -0.00001
  33       15D-1        0.00000   0.00000   0.00000   0.00006  -0.00004
  34       15D+2        0.00000   0.00000  -0.00000   0.00000   0.01081
  35       15D-2       -0.00000  -0.00000  -0.00000  -0.00000  -0.00451
  36       16D 0        0.00000   0.00000  -0.00000  -0.01799   0.00001
  37       16D+1       -0.00000   0.00000   0.00000  -0.00001  -0.00001
  38       16D-1        0.00000  -0.00000   0.00000  -0.00005  -0.00005
  39       16D+2       -0.00000  -0.00000  -0.00000   0.00001   0.02513
  40       16D-2       -0.00000   0.00000  -0.00000  -0.00000  -0.01051
  41       17D 0       -0.00000  -0.00000   0.00000   0.00742  -0.00001
  42       17D+1        0.00000   0.00000   0.00000   0.00001   0.00003
  43       17D-1        0.00000  -0.00000   0.00000   0.00002   0.00010
  44       17D+2        0.00000  -0.00000  -0.00000  -0.00001  -0.00835
  45       17D-2       -0.00000  -0.00000  -0.00000   0.00000   0.00349
  46       18F 0       -0.00597   0.00002   0.00149  -0.00000  -0.00000
  47       18F+1        0.00007   0.00224   0.00039  -0.00000  -0.00014
  48       18F-1        0.00033  -0.00039   0.00223   0.00000  -0.00005
  49       18F+2        0.00003   0.00004   0.00010   0.00000   0.00000
  50       18F-2       -0.00001   0.00008  -0.00005  -0.00000   0.00000
  51       18F+3       -0.00043   0.00268  -0.00186   0.00000   0.00015
  52       18F-3       -0.00062  -0.00191  -0.00261  -0.00000  -0.00035
  53       19F 0       -0.00402   0.00001   0.00095  -0.00000  -0.00000
  54       19F+1        0.00013   0.00337   0.00057  -0.00000  -0.00126
  55       19F-1        0.00069  -0.00059   0.00330   0.00000  -0.00047
  56       19F+2        0.00002   0.00005   0.00006  -0.00000  -0.00000
  57       19F-2       -0.00001   0.00011  -0.00003   0.00000   0.00000
  58       19F+3       -0.00030   0.00191  -0.00133   0.00000   0.00062
  59       19F-3       -0.00044  -0.00137  -0.00187   0.00000  -0.00140
  60       20G 0        0.00000  -0.00000  -0.00000   0.00044  -0.00000
  61       20G+1        0.00000   0.00000   0.00000  -0.00000  -0.00000
  62       20G-1        0.00000  -0.00000   0.00000  -0.00001  -0.00000
  63       20G+2       -0.00000   0.00000  -0.00000  -0.00000  -0.00107
  64       20G-2        0.00000  -0.00000   0.00000   0.00000   0.00045
  65       20G+3       -0.00000  -0.00000   0.00000  -0.00000  -0.00000
  66       20G-3        0.00000   0.00000   0.00000  -0.00001  -0.00000
  67       20G+4       -0.00000  -0.00000  -0.00000   0.00054  -0.00000
  68       20G-4        0.00000   0.00000  -0.00000  -0.00054   0.00000
  69 2   O  1S         -0.00003   0.00939  -0.00023  -0.10439  -0.13605
  70        2S          0.00007  -0.01991   0.00050   0.23672   0.31036
  71        3S          0.00002  -0.00463   0.00012   0.07162   0.09455
  72        4S          0.00003  -0.01221   0.00030   0.14678   0.17698
  73        5PX        -0.00010   0.00823  -0.00048   0.01975   0.03052
  74        5PY        -0.00034  -0.00169  -0.00131  -0.00397  -0.00563
  75        5PZ        -0.00117   0.00001   0.00031  -0.00006  -0.00009
  76        6PX        -0.00014   0.01190  -0.00067   0.02008   0.03188
  77        6PY        -0.00049  -0.00244  -0.00182  -0.00404  -0.00592
  78        6PZ        -0.00189   0.00001   0.00049  -0.00008  -0.00010
  79        7PX        -0.00001   0.00480  -0.00007  -0.01266  -0.00627
  80        7PY         0.00004  -0.00096   0.00027   0.00254   0.00107
  81        7PZ        -0.00085   0.00000   0.00019  -0.00002  -0.00000
  82        8D 0       -0.00000   0.00047  -0.00001  -0.00132  -0.00173
  83        8D+1        0.00003  -0.00000  -0.00001  -0.00002  -0.00003
  84        8D-1       -0.00001   0.00000   0.00000  -0.00008  -0.00012
  85        8D+2        0.00002  -0.00075   0.00008  -0.00009   0.00004
  86        8D-2        0.00004   0.00032   0.00015   0.00004  -0.00001
  87        9D 0       -0.00001   0.00267  -0.00007  -0.00566  -0.00575
  88        9D+1        0.00211  -0.00000  -0.00054  -0.00006  -0.00006
  89        9D-1       -0.00042   0.00002   0.00011  -0.00026  -0.00028
  90        9D+2        0.00016  -0.00365   0.00065   0.00106   0.00141
  91        9D-2        0.00036   0.00157   0.00130  -0.00044  -0.00083
  92       10F 0        0.00032  -0.00000  -0.00008   0.00000   0.00000
  93       10F+1        0.00000  -0.00058   0.00003  -0.00059  -0.00089
  94       10F-1        0.00002   0.00012   0.00008   0.00012   0.00018
  95       10F+2       -0.00044   0.00000   0.00011  -0.00004  -0.00005
  96       10F-2        0.00019   0.00001  -0.00005  -0.00009  -0.00011
  97       10F+3       -0.00005   0.00076  -0.00019  -0.00104  -0.00137
  98       10F-3       -0.00007  -0.00052  -0.00024   0.00071   0.00092
  99 3   H  1S          0.00007  -0.00084   0.00033   0.04215   0.05593
 100        2S          0.00018   0.00015   0.00077   0.03786   0.05077
 101        3S          0.00001  -0.00056   0.00001   0.00480   0.00515
 102        4PX        -0.00002   0.00030  -0.00008  -0.00325  -0.00398
 103        4PY         0.00001   0.00002   0.00007   0.00596   0.00817
 104        4PZ        -0.00011  -0.00000   0.00002  -0.00019  -0.00026
 105        5PX        -0.00001  -0.00021  -0.00002  -0.00262  -0.00412
 106        5PY         0.00005   0.00017   0.00025   0.00659   0.01028
 107        5PZ        -0.00013  -0.00000   0.00002  -0.00029  -0.00038
 108        6D 0        0.00002  -0.00007   0.00004  -0.00089  -0.00124
 109        6D+1       -0.00002  -0.00001   0.00000   0.00004   0.00006
 110        6D-1       -0.00019  -0.00001   0.00005  -0.00007  -0.00011
 111        6D+2        0.00000  -0.00009  -0.00003  -0.00082  -0.00125
 112        6D-2       -0.00000   0.00013   0.00000  -0.00108  -0.00180
 113 4   O  1S          0.00003  -0.00939   0.00023  -0.10428  -0.06817
 114        2S         -0.00007   0.01990  -0.00049   0.23648   0.15561
 115        3S         -0.00002   0.00463  -0.00011   0.07155   0.04727
 116        4S         -0.00005   0.01220  -0.00030   0.14665   0.08945
 117        5PX        -0.00010   0.00822  -0.00047  -0.01974  -0.01405
 118        5PY        -0.00034  -0.00169  -0.00131   0.00393   0.00331
 119        5PZ        -0.00117   0.00000   0.00031   0.00005   0.00003
 120        6PX        -0.00015   0.01189  -0.00067  -0.02006  -0.01405
 121        6PY        -0.00049  -0.00244  -0.00182   0.00399   0.00329
 122        6PZ        -0.00189   0.00001   0.00049   0.00006   0.00004
 123        7PX        -0.00001   0.00480  -0.00007   0.01265   0.00299
 124        7PY         0.00004  -0.00096   0.00027  -0.00255  -0.00079
 125        7PZ        -0.00084   0.00000   0.00019   0.00001   0.00002
 126        8D 0        0.00000  -0.00047   0.00001  -0.00132  -0.00084
 127        8D+1       -0.00003   0.00000   0.00001  -0.00002  -0.00001
 128        8D-1        0.00001   0.00000  -0.00000  -0.00008  -0.00006
 129        8D+2       -0.00002   0.00075  -0.00008  -0.00009   0.00005
 130        8D-2       -0.00004  -0.00032  -0.00015   0.00004  -0.00003
 131        9D 0        0.00001  -0.00267   0.00007  -0.00566  -0.00322
 132        9D+1       -0.00211   0.00000   0.00054  -0.00006  -0.00004
 133        9D-1        0.00042  -0.00002  -0.00011  -0.00025  -0.00013
 134        9D+2       -0.00017   0.00365  -0.00065   0.00106   0.00182
 135        9D-2       -0.00036  -0.00157  -0.00130  -0.00045  -0.00052
 136       10F 0        0.00032  -0.00000  -0.00008  -0.00000  -0.00000
 137       10F+1        0.00001  -0.00058   0.00003   0.00059   0.00036
 138       10F-1        0.00002   0.00012   0.00008  -0.00012  -0.00007
 139       10F+2       -0.00044   0.00000   0.00011   0.00004   0.00002
 140       10F-2        0.00019   0.00001  -0.00005   0.00009   0.00006
 141       10F+3       -0.00005   0.00076  -0.00019   0.00105   0.00080
 142       10F-3       -0.00007  -0.00052  -0.00024  -0.00070  -0.00054
 143 5   H  1S         -0.00007   0.00084  -0.00033   0.04210   0.02793
 144        2S         -0.00018  -0.00015  -0.00077   0.03782   0.02534
 145        3S         -0.00001   0.00056  -0.00001   0.00479   0.00385
 146        4PX        -0.00002   0.00030  -0.00008   0.00325   0.00203
 147        4PY         0.00001   0.00002   0.00007  -0.00595  -0.00408
 148        4PZ        -0.00011  -0.00000   0.00002   0.00019   0.00013
 149        5PX        -0.00001  -0.00021  -0.00002   0.00262   0.00243
 150        5PY         0.00005   0.00017   0.00025  -0.00659  -0.00529
 151        5PZ        -0.00013  -0.00000   0.00002   0.00029   0.00018
[...]
 284         V                 6.606222          9.749805
 285         V                 6.847294          9.873316
 286         V                 6.856208         10.022718
 287         V                 6.873829         10.220841
 288         V                 6.873869         10.222196
 289         V                 6.905121         10.737220
 290         V                 6.905503         10.738466
 291         V                 6.924243         10.064001
 292         V                 7.381175         10.878547
 293         V                 7.381280         10.878739
 294         V                 7.412182         10.774609
 295         V                 7.432799         10.931952
 296         V                 8.012393         20.099051
 297         V                11.928233         33.585942
 298         V                12.063641         33.459565
 299         V                12.064416         33.460354
 300         V                12.565558         34.755643
 Total kinetic energy from orbitals= 1.347606809503D+03
 Calling FoFJK, ICntrl=      2527 FMM=F ISym2X=0 I1Cent= 4 IOpClX= 0 NMat=1 NMatS=1 NMatT=0.
 ***** Axes restored to original set *****
 -------------------------------------------------------------------
 Center     Atomic                   Forces (Hartrees/Bohr)
 Number     Number              X              Y              Z
 -------------------------------------------------------------------
      1       24          -0.000000000   -0.000000000   -0.000000000
      2        8          -0.000000000   -0.000000000   -0.000000000
      3        1           0.000009846    0.000010654    0.000004132
      4        8          -0.000000000   -0.000000000   -0.000000000
      5        1           0.000028532   -0.000028009    0.000000973
      6        8          -0.000000000   -0.000000000   -0.000000000
      7        1          -0.000016361    0.000005061   -0.000001797
      8        8          -0.000000000   -0.000000000   -0.000000000
      9        1           0.000028575   -0.000018842   -0.000004022
     10        1          -0.000032677   -0.000019904    0.000009070
     11        1          -0.000001910    0.000048770   -0.000029903
     12        1          -0.000002454   -0.000018959    0.000048660
     13        1           0.000027453   -0.000001624   -0.000009187
 -------------------------------------------------------------------
 Cartesian Forces:  Max     0.000048770 RMS     0.000017326

 GradGradGradGradGradGradGradGradGradGradGradGradGradGradGradGradGradGrad
 Berny optimization.
 FormGI is forming the generalized inverse of G from B-inverse, IUseBI=4.
 Internal  Forces:  Max     0.000069377 RMS     0.000022370
 Search for a local minimum.
 Step number   1 out of a maximum of   69
 All quantities printed in internal units (Hartrees-Bohrs-Radians)
 Mixed Optimization -- En-DIIS/RFO-DIIS
 Second derivative matrix not updated -- first step.
 ITU=  0
     Eigenvalues ---    0.01776   0.01776   0.02549   0.02550   0.02550
     Eigenvalues ---    0.02550   0.04869   0.04869   0.16000   0.16000
     Eigenvalues ---    0.16000   0.16000   0.16000   0.16000   0.16000
     Eigenvalues ---    0.16000   0.50178   0.50178   0.50179   0.50179
     Eigenvalues ---    0.50181   0.50182   0.50182   0.501851000.00000
     Eigenvalues --- 1000.000001000.000001000.000001000.000001000.00000
     Eigenvalues --- 1000.000001000.000001000.000001000.000001000.00000
     Eigenvalues --- 1000.000001000.000001000.000001000.000001000.00000
     Eigenvalues --- 1000.000001000.000001000.000001000.000001000.00000
     Eigenvalues --- 1000.000001000.000001000.000001000.000001000.00000
     Eigenvalues --- 1000.000001000.000001000.000001000.000001000.00000
     Eigenvalues --- 1000.000001000.000001000.000001000.00000
 RFO step:  Lambda=-1.20201500D-07 EMin= 1.77643649D-02
 Linear search not attempted -- first point.
 Iteration  1 RMS(Cart)=  0.00019453 RMS(Int)=  0.00000006
 Iteration  2 RMS(Cart)=  0.00000006 RMS(Int)=  0.00000001
 Variable       Old X    -DE/DX   Delta X   Delta X   Delta X     New X
                                 (Linear)    (Quad)   (Total)
    X1        0.00013  -0.00001   0.00000   0.00000  -0.00000   0.00013
    Y1        0.00005  -0.00003   0.00000   0.00000   0.00000   0.00005
    Z1       -0.00046   0.00000   0.00000   0.00000   0.00000  -0.00046
    X2        3.31645   0.00001   0.00000   0.00000   0.00000   3.31645
    Y2       -0.66566  -0.00001   0.00000   0.00000   0.00000  -0.66566
    Z2        0.00074   0.00007   0.00000   0.00000   0.00000   0.00074
    X4       -3.31648   0.00003   0.00000   0.00000  -0.00000  -3.31648
    Y4        0.66564   0.00005   0.00000   0.00000  -0.00000   0.66564
    Z4       -0.00012  -0.00005   0.00000   0.00000   0.00000  -0.00012
    X6       -0.66573   0.00001   0.00000   0.00000   0.00000  -0.66573
    Y6       -3.31644   0.00000   0.00000   0.00000  -0.00000  -3.31644
    Z6       -0.00052  -0.00003   0.00000   0.00000   0.00000  -0.00052
    X8        0.66558   0.00000   0.00000   0.00000   0.00000   0.66558
    Y8        3.31650  -0.00004   0.00000   0.00000   0.00000   3.31650
    Z8        0.00088   0.00002   0.00000   0.00000   0.00000   0.00088
    R1        1.86379  -0.00000   0.00000  -0.00001  -0.00001   1.86378
    R2        1.86383  -0.00002   0.00000  -0.00003  -0.00003   1.86380
    R3        1.86386  -0.00004   0.00000  -0.00008  -0.00008   1.86378
    R4        1.86385  -0.00003   0.00000  -0.00006  -0.00006   1.86379
    R5        1.86382  -0.00001   0.00000  -0.00003  -0.00003   1.86379
    R6        1.86383  -0.00002   0.00000  -0.00005  -0.00005   1.86378
    R7        1.86385  -0.00003   0.00000  -0.00007  -0.00007   1.86379
    R8        1.86386  -0.00004   0.00000  -0.00008  -0.00008   1.86379
    A1        2.24461   0.00001   0.00000   0.00005   0.00005   2.24466
    A2        2.24453   0.00001   0.00000   0.00006   0.00006   2.24459
    A3        1.79405  -0.00002   0.00000  -0.00011  -0.00011   1.79394
    A4        2.24538  -0.00004   0.00000  -0.00025  -0.00025   2.24513
    A5        2.24381   0.00006   0.00000   0.00035   0.00035   2.24416
    A6        1.79400  -0.00002   0.00000  -0.00010  -0.00010   1.79389
    A7        2.24461   0.00000   0.00000   0.00002   0.00002   2.24463
    A8        2.24450   0.00001   0.00000   0.00007   0.00007   2.24457
    A9        1.79395  -0.00001   0.00000  -0.00009  -0.00009   1.79386
   A10        2.24433   0.00001   0.00000   0.00009   0.00009   2.24442
   A11        2.24480  -0.00001   0.00000  -0.00006  -0.00006   2.24474
   A12        1.79393  -0.00000   0.00000  -0.00003  -0.00003   1.79390
    D1       -0.03635   0.00000   0.00000  -0.00006  -0.00006  -0.03641
    D2        3.10157   0.00002   0.00000   0.00069   0.00069   3.10226
    D3        3.10486   0.00001   0.00000  -0.00006  -0.00006   3.10480
    D4       -0.04040   0.00002   0.00000   0.00069   0.00069  -0.03971
    D5        3.14094  -0.00000   0.00000  -0.00007  -0.00007   3.14087
    D6        0.00214  -0.00001   0.00000  -0.00047  -0.00047   0.00167
    D7       -0.00396   0.00002   0.00000   0.00068   0.00068  -0.00328
    D8        3.14042   0.00001   0.00000   0.00028   0.00028   3.14070
    D9       -3.10553  -0.00000   0.00000  -0.00002  -0.00002  -3.10554
   D10        0.03849  -0.00002   0.00000  -0.00042  -0.00042   0.03808
   D11        0.03644  -0.00001   0.00000  -0.00002  -0.00002   0.03643
   D12       -3.10272  -0.00002   0.00000  -0.00042  -0.00042  -3.10314
   D13       -0.00944  -0.00000   0.00000  -0.00002  -0.00002  -0.00946
   D14       -3.13137   0.00000   0.00000   0.00014   0.00014  -3.13123
   D15        3.13261   0.00000   0.00000  -0.00002  -0.00002   3.13259
   D16        0.01068   0.00001   0.00000   0.00014   0.00014   0.01082
   D17       -3.14107  -0.00000   0.00000  -0.00008  -0.00008  -3.14115
   D18       -0.02009  -0.00000   0.00000  -0.00016  -0.00016  -0.02025
   D19        0.01988   0.00000   0.00000   0.00008   0.00008   0.01996
   D20        3.14086   0.00000   0.00000   0.00000   0.00000   3.14086
   D21       -3.13193  -0.00000   0.00000  -0.00006  -0.00006  -3.13199
   D22       -0.01065  -0.00000   0.00000  -0.00014  -0.00014  -0.01079
   D23        0.00920  -0.00000   0.00000  -0.00006  -0.00006   0.00915
   D24        3.13049  -0.00001   0.00000  -0.00014  -0.00014   3.13035
         Item               Value     Threshold  Converged?
 Maximum Force            0.000057     0.000450     YES
 RMS     Force            0.000018     0.000300     YES
 Maximum Displacement     0.001013     0.001800     YES
 RMS     Displacement     0.000195     0.001200     YES
 Predicted change in Energy=-6.010076D-08
 Optimization completed.
    -- Stationary point found.
                           ----------------------------
                           !   Optimized Parameters   !
                           ! (Angstroms and Degrees)  !
 --------------------------                            --------------------------
 ! Name  Definition              Value          Derivative Info.                !
 --------------------------------------------------------------------------------
 ! X1    R(1,-1)                 0.0001         -DE/DX =    0.0                 !
 ! Y1    R(1,-2)                 0.0            -DE/DX =    0.0                 !
 ! Z1    R(1,-3)                -0.0002         -DE/DX =    0.0                 !
 ! X2    R(2,-1)                 1.755          -DE/DX =    0.0                 !
 ! Y2    R(2,-2)                -0.3523         -DE/DX =    0.0                 !
 ! Z2    R(2,-3)                 0.0004         -DE/DX =    0.0001              !
 ! X4    R(4,-1)                -1.755          -DE/DX =    0.0                 !
 ! Y4    R(4,-2)                 0.3522         -DE/DX =    0.0                 !
 ! Z4    R(4,-3)                -0.0001         -DE/DX =    0.0                 !
 ! X6    R(6,-1)                -0.3523         -DE/DX =    0.0                 !
 ! Y6    R(6,-2)                -1.755          -DE/DX =    0.0                 !
 ! Z6    R(6,-3)                -0.0003         -DE/DX =    0.0                 !
 ! X8    R(8,-1)                 0.3522         -DE/DX =    0.0                 !
 ! Y8    R(8,-2)                 1.755          -DE/DX =    0.0                 !
 ! Z8    R(8,-3)                 0.0005         -DE/DX =    0.0                 !
 ! R1    R(2,3)                  0.9863         -DE/DX =    0.0                 !
 ! R2    R(2,12)                 0.9863         -DE/DX =    0.0                 !
 ! R3    R(4,5)                  0.9863         -DE/DX =    0.0                 !
 ! R4    R(4,11)                 0.9863         -DE/DX =    0.0                 !
 ! R5    R(6,7)                  0.9863         -DE/DX =    0.0                 !
 ! R6    R(6,13)                 0.9863         -DE/DX =    0.0                 !
 ! R7    R(8,9)                  0.9863         -DE/DX =    0.0                 !
 ! R8    R(8,10)                 0.9863         -DE/DX =    0.0                 !
 ! A1    A(1,2,3)              128.6064         -DE/DX =    0.0                 !
 ! A2    A(1,2,12)             128.6021         -DE/DX =    0.0                 !
 ! A3    A(3,2,12)             102.7913         -DE/DX =    0.0                 !
 ! A4    A(1,4,5)              128.6507         -DE/DX =    0.0                 !
 ! A5    A(1,4,11)             128.5607         -DE/DX =    0.0001              !
 ! A6    A(5,4,11)             102.7885         -DE/DX =    0.0                 !
 ! A7    A(1,6,7)              128.6069         -DE/DX =    0.0                 !
 ! A8    A(1,6,13)             128.6004         -DE/DX =    0.0                 !
 ! A9    A(7,6,13)             102.7858         -DE/DX =    0.0                 !
 ! A10   A(1,8,9)              128.5908         -DE/DX =    0.0                 !
 ! A11   A(1,8,10)             128.6173         -DE/DX =    0.0                 !
 ! A12   A(9,8,10)             102.7845         -DE/DX =    0.0                 !
 ! D1    D(6,1,2,3)             -2.083          -DE/DX =    0.0                 !
 ! D2    D(6,1,2,12)           177.7068         -DE/DX =    0.0                 !
 ! D3    D(8,1,2,3)            177.8953         -DE/DX =    0.0                 !
 ! D4    D(8,1,2,12)            -2.3149         -DE/DX =    0.0                 !
 ! D5    D(3,2,4,5)            179.9626         -DE/DX =    0.0                 !
 ! D6    D(3,2,4,11)             0.1225         -DE/DX =    0.0                 !
 ! D7    D(12,2,4,5)            -0.2269         -DE/DX =    0.0                 !
 ! D8    D(12,2,4,11)          179.933          -DE/DX =    0.0                 !
 ! D9    D(6,1,4,5)           -177.9336         -DE/DX =    0.0                 !
 ! D10   D(6,1,4,11)             2.2055         -DE/DX =    0.0                 !
 ! D11   D(8,1,4,5)              2.0881         -DE/DX =    0.0                 !
 ! D12   D(8,1,4,11)          -177.7728         -DE/DX =    0.0                 !
 ! D13   D(2,1,6,7)             -0.5408         -DE/DX =    0.0                 !
 ! D14   D(2,1,6,13)          -179.4142         -DE/DX =    0.0                 !
 ! D15   D(4,1,6,7)            179.4853         -DE/DX =    0.0                 !
 ! D16   D(4,1,6,13)             0.6119         -DE/DX =    0.0                 !
 ! D17   D(7,6,8,9)           -179.97           -DE/DX =    0.0                 !
 ! D18   D(7,6,8,10)            -1.1511         -DE/DX =    0.0                 !
 ! D19   D(13,6,8,9)             1.1392         -DE/DX =    0.0                 !
 ! D20   D(13,6,8,10)          179.9581         -DE/DX =    0.0                 !
 ! D21   D(2,1,8,9)           -179.4465         -DE/DX =    0.0                 !
 ! D22   D(2,1,8,10)            -0.6102         -DE/DX =    0.0                 !
 ! D23   D(4,1,8,9)              0.5273         -DE/DX =    0.0                 !
 ! D24   D(4,1,8,10)           179.3636         -DE/DX =    0.0                 !
 --------------------------------------------------------------------------------
 GradGradGradGradGradGradGradGradGradGradGradGradGradGradGradGradGradGrad

                          Input orientation:                          
 ---------------------------------------------------------------------
 Center     Atomic      Atomic             Coordinates (Angstroms)
 Number     Number       Type             X           Y           Z
 ---------------------------------------------------------------------
      1         24           0        0.000070    0.000024   -0.000243
      2          8           0        1.754992   -0.352251    0.000392
      3          1           0        2.206762   -1.228519    0.028611
      4          8           0       -1.755007    0.352244   -0.000063
      5          1           0       -2.207525    1.228184   -0.027761
      6          8           0       -0.352287   -1.754982   -0.000275
      7          1           0        0.282193   -2.510069   -0.007287
      8          8           0        0.352208    1.755016    0.000468
      9          1           0       -0.282583    2.509861    0.007885
     10          1           0        1.228842    2.206960    0.009193
     11          1           0       -2.509434   -0.282392    0.029666
     12          1           0        2.509902    0.281746   -0.030217
     13          1           0       -1.229093   -2.206557   -0.008440
 ---------------------------------------------------------------------
                    Distance matrix (angstroms):
                    1          2          3          4          5
     1  Cr   0.000000
     2  O    1.789930   0.000000
     3  H    2.525795   0.986275   0.000000
     4  O    1.790070   3.580000   4.265589   0.000000
     5  H    2.526383   4.266159   5.052178   0.986313   0.000000
     6  O    1.790028   2.531457   2.612801   2.531408   3.513111
     7  H    2.525907   2.612541   2.312494   3.513270   4.491509
     8  O    1.789972   2.531477   3.513068   2.531428   2.613539
     9  H    2.525716   3.513325   4.491409   2.612165   2.312870
    10  H    2.525972   2.612752   3.572005   3.513319   3.573232
    11  H    2.525522   4.265098   4.810163   0.986309   1.541521
    12  H    2.525772   0.986296   1.541511   4.265598   4.811432
    13  H    2.525848   3.513301   3.572539   2.612301   3.571435
                    6          7          8          9         10
     6  O    0.000000
     7  H    0.986291   0.000000
     8  O    3.580000   4.265667   0.000000
     9  H    4.265420   5.051623   0.986309   0.000000
    10  H    4.265799   4.811109   0.986314   1.541479   0.000000
    11  H    2.612031   3.571707   3.512959   3.571556   4.491324
    12  H    3.513017   3.571757   2.612874   3.572663   2.312815
    13  H    0.986294   1.541462   4.265519   4.810482   5.051820
                   11         12         13
    11  H    0.000000
    12  H    5.051294   0.000000
    13  H    2.311522   4.491349   0.000000
 Stoichiometry    CrH8O4(2+)
 Framework group  C1[X(CrH8O4)]
 Deg. of freedom    33
 Full point group                 C1      NOp   1
 Largest Abelian subgroup         C1      NOp   1
 Largest concise Abelian subgroup C1      NOp   1
                         Standard orientation:                         
 ---------------------------------------------------------------------
 Center     Atomic      Atomic             Coordinates (Angstroms)
 Number     Number       Type             X           Y           Z
 ---------------------------------------------------------------------
      1         24           0        0.000070    0.000024   -0.000243
      2          8           0        1.754991   -0.352253    0.000392
      3          1           0        2.206761   -1.228521    0.028611
      4          8           0       -1.755006    0.352245   -0.000063
      5          1           0       -2.207524    1.228186   -0.027761
      6          8           0       -0.352288   -1.754982   -0.000275
      7          1           0        0.282191   -2.510069   -0.007287
      8          8           0        0.352210    1.755016    0.000468
      9          1           0       -0.282581    2.509861    0.007885
     10          1           0        1.228844    2.206958    0.009193
     11          1           0       -2.509434   -0.282389    0.029666
     12          1           0        2.509903    0.281744   -0.030217
     13          1           0       -1.229095   -2.206556   -0.008440
 ---------------------------------------------------------------------
 Rotational constants (GHZ):      3.9415540      3.9414360      1.9708042
 1\1\GINC-HECTOR-MACBOOKAIR\FOpt\RPBEPBE\CC-pVTZ/def2TZV\Cr1H8O4(2+)\HE
 CTOR\08-Aug-2024\0\\# opt pbepbe/cc-pvtz/def2tzv pop=full geom=connect
 ivity output=wfx\\Cr2_cuadrado_plano_cc-pvtz-def2-tzv_1\\2,1\Cr,0.0000
 6993,0.00002393,-0.00024315\O,1.75499173,-0.35225138,0.00039249\H,2.20
 676248,-1.22851888,0.02861084\O,-1.75500652,0.35224375,-0.00006255\H,-
 2.20752524,1.22818446,-0.0277608\O,-0.35228657,-1.75498218,-0.00027472
 \H,0.28219295,-2.51006882,-0.00728659\O,0.35220842,1.75501609,0.000467
 82\H,-0.28258285,2.50986075,0.00788524\H,1.22884204,2.20695955,0.00919
 344\H,-2.50943374,-0.28239153,0.02966587\H,2.50990243,0.28174645,-0.03
 021709\H,-1.22909292,-2.20655666,-0.00843953\\Version=EM64L-G09RevE.01
 \State=1-A\HF=-1350.059984\RMSD=6.441e-10\RMSF=1.733e-05\Dipole=-0.000
 2116,-0.0002757,0.0005573\Quadrupole=9.8425208,9.8362254,-19.6787461,-
 0.0013723,-0.0210739,-0.0537382\PG=C01 [X(Cr1H8O4)]\\@

 Writing a WFNX file to "Cr2_cuadrado_plano_cc-pvtz-def2-tzv_1.wfx"


 BE LIKE A POSTAGE STAMP.  STICK TO ONE THING UNTIL
 YOU GET THERE -- JOSH BILLINGS
 Job cpu time:       0 days  0 hours  2 minutes  7.6 seconds.
 File lengths (MBytes):  RWF=     49 Int=      0 D2E=      0 Chk=      7 Scr=      1
 Normal termination of Gaussian 09 at Thu Aug  8 09:21:47 2024.
