 Entering Gaussian System, Link 0=g09
 Input=/home/scratch/M_H2O_4_tetraedrico/Opt/Zn2_tetraedrico_cc-pvtz-def2-tzv_1.gjf
 Output=/home/scratch/M_H2O_4_tetraedrico/Opt/Zn2_tetraedrico_cc-pvtz-def2-tzv_1.log
 Initial command:
 /opt/g09/l1.exe "/home/scratch/Gau-111112.inp" -scrdir="/home/scratch/"
 Entering Link 1 = /opt/g09/l1.exe PID=    111115.
  
 Copyright (c) 1988,1990,1992,1993,1995,1998,2003,2009,2015,
            Gaussian, Inc.  All Rights Reserved.
  
 This is part of the Gaussian(R) 09 program.  It is based on
 the Gaussian(R) 03 system (copyright 2003, Gaussian, Inc.),
 the Gaussian(R) 98 system (copyright 1998, Gaussian, Inc.),
 the Gaussian(R) 94 system (copyright 1995, Gaussian, Inc.),
 the Gaussian 92(TM) system (copyright 1992, Gaussian, Inc.),
 the Gaussian 90(TM) system (copyright 1990, Gaussian, Inc.),
 the Gaussian 88(TM) system (copyright 1988, Gaussian, Inc.),
 the Gaussian 86(TM) system (copyright 1986, Carnegie Mellon
 University), and the Gaussian 82(TM) system (copyright 1983,
 Carnegie Mellon University). Gaussian is a federally registered
 trademark of Gaussian, Inc.
  
 This software contains proprietary and confidential information,
 including trade secrets, belonging to Gaussian, Inc.
  
 This software is provided under written license and may be
 used, copied, transmitted, or stored only in accord with that
 written license.
  
 The following legend is applicable only to US Government
 contracts under FAR:
  
                    RESTRICTED RIGHTS LEGEND
  
 Use, reproduction and disclosure by the US Government is
 subject to restrictions as set forth in subparagraphs (a)
 and (c) of the Commercial Computer Software - Restricted
 Rights clause in FAR 52.227-19.
  
 Gaussian, Inc.
 340 Quinnipiac St., Bldg. 40, Wallingford CT 06492
  
  
 ---------------------------------------------------------------
 Warning -- This program may not be used in any manner that
 competes with the business of Gaussian, Inc. or will provide
 assistance to any competitor of Gaussian, Inc.  The licensee
 of this program is prohibited from giving any competitor of
 Gaussian, Inc. access to this program.  By using this program,
 the user acknowledges that Gaussian, Inc. is engaged in the
 business of creating and licensing software in the field of
 computational chemistry and represents and warrants to the
 licensee that it is not a competitor of Gaussian, Inc. and that
 it will not use this program in any manner prohibited above.
 ---------------------------------------------------------------
  

 Cite this work as:
 Gaussian 09, Revision E.01,
 M. J. Frisch, G. W. Trucks, H. B. Schlegel, G. E. Scuseria, 
 M. A. Robb, J. R. Cheeseman, G. Scalmani, V. Barone, B. Mennucci, 
 G. A. Petersson, H. Nakatsuji, M. Caricato, X. Li, H. P. Hratchian, 
 A. F. Izmaylov, J. Bloino, G. Zheng, J. L. Sonnenberg, M. Hada, 
 M. Ehara, K. Toyota, R. Fukuda, J. Hasegawa, M. Ishida, T. Nakajima, 
 Y. Honda, O. Kitao, H. Nakai, T. Vreven, J. A. Montgomery, Jr., 
 J. E. Peralta, F. Ogliaro, M. Bearpark, J. J. Heyd, E. Brothers, 
 K. N. Kudin, V. N. Staroverov, T. Keith, R. Kobayashi, J. Normand, 
 K. Raghavachari, A. Rendell, J. C. Burant, S. S. Iyengar, J. Tomasi, 
 M. Cossi, N. Rega, J. M. Millam, M. Klene, J. E. Knox, J. B. Cross, 
 V. Bakken, C. Adamo, J. Jaramillo, R. Gomperts, R. E. Stratmann, 
 O. Yazyev, A. J. Austin, R. Cammi, C. Pomelli, J. W. Ochterski, 
 R. L. Martin, K. Morokuma, V. G. Zakrzewski, G. A. Voth, 
 P. Salvador, J. J. Dannenberg, S. Dapprich, A. D. Daniels, 
 O. Farkas, J. B. Foresman, J. V. Ortiz, J. Cioslowski, 
 and D. J. Fox, Gaussian, Inc., Wallingford CT, 2013.
 
 ******************************************
 Gaussian 09:  EM64L-G09RevE.01 30-Nov-2015
                 8-Aug-2024 
 ******************************************
 %chk=Zn2_tetraedrico_cc-pvtz-def2-tzv_1.chk
 ------------------------------------------------------------------
 # opt pbepbe/cc-pvtz/def2tzv pop=full geom=connectivity output=wfx
 ------------------------------------------------------------------
 1/14=-1,18=20,19=15,26=3,38=1,57=2/1,3;
 2/9=110,12=2,17=6,18=5,40=1/2;
 3/5=16,6=1,11=2,16=1,25=1,30=1,71=1,74=1009,82=44/1,2,3;
 4//1;
 5/5=2,38=5/2;
 6/7=3,28=1/1;
 7//1,2,3,16;
 1/14=-1,18=20,19=15,26=3/3(2);
 2/9=110/2;
 99/6=200/99;
 2/9=110/2;
 3/5=16,6=1,11=2,16=1,25=1,30=1,71=1,74=1009,82=44/1,2,3;
 4/5=5,16=3,69=1/1;
 5/5=2,38=5/2;
 7//1,2,3,16;
 1/14=-1,18=20,19=15,26=3/3(-5);
 2/9=110/2;
 6/7=3,19=2,28=1/1;
 99/6=200,9=1/99;
 ----------------------------------
 Zn2_tetraedrico_cc-pvtz-def2-tzv_1
 ----------------------------------
 Symbolic Z-matrix:
 Charge =  2 Multiplicity = 1
 Zn                   -1   0.         0.00001   0.00001 
 O                    -1    1.11123  -0.66329   1.40475 
 H                    0     1.00867  -1.52068   1.86542 
 O                    -1    1.09412   0.68654  -1.407 
 H                    0     0.97115   1.54034  -1.86933 
 O                    -1   -1.11679   1.3942    0.67611 
 H                    0    -1.92586   1.75523   0.26048 
 O                    -1   -1.08856  -1.41741  -0.67382 
 H                    0    -0.97108  -1.87902  -1.52877 
 H                    0    -1.00843   1.85639   1.53195 
 H                    0    -1.89029  -1.7936   -0.2574 
 H                    0     1.90369   0.27926  -1.77634 
 H                    0     1.91225  -0.23866   1.77321 
 

 GradGradGradGradGradGradGradGradGradGradGradGradGradGradGradGradGradGrad
 Berny optimization.
 Initialization pass.
                           ----------------------------
                           !    Initial Parameters    !
                           ! (Angstroms and Degrees)  !
 --------------------------                            --------------------------
 ! Name  Definition              Value          Derivative Info.                !
 --------------------------------------------------------------------------------
 ! X1    R(1,-1)                 0.0            Frozen                          !
 ! Y1    R(1,-2)                 0.0            Frozen                          !
 ! Z1    R(1,-3)                 0.0            Frozen                          !
 ! X2    R(2,-1)                 1.1112         Frozen                          !
 ! Y2    R(2,-2)                -0.6633         Frozen                          !
 ! Z2    R(2,-3)                 1.4048         Frozen                          !
 ! X4    R(4,-1)                 1.0941         Frozen                          !
 ! Y4    R(4,-2)                 0.6865         Frozen                          !
 ! Z4    R(4,-3)                -1.407          Frozen                          !
 ! X6    R(6,-1)                -1.1168         Frozen                          !
 ! Y6    R(6,-2)                 1.3942         Frozen                          !
 ! Z6    R(6,-3)                 0.6761         Frozen                          !
 ! X8    R(8,-1)                -1.0886         Frozen                          !
 ! Y8    R(8,-2)                -1.4174         Frozen                          !
 ! Z8    R(8,-3)                -0.6738         Frozen                          !
 ! R1    R(2,3)                  0.9787         estimate D2E/DX2                !
 ! R2    R(2,13)                 0.9786         estimate D2E/DX2                !
 ! R3    R(4,5)                  0.9787         estimate D2E/DX2                !
 ! R4    R(4,12)                 0.9786         estimate D2E/DX2                !
 ! R5    R(6,7)                  0.9786         estimate D2E/DX2                !
 ! R6    R(6,10)                 0.9787         estimate D2E/DX2                !
 ! R7    R(8,9)                  0.9787         estimate D2E/DX2                !
 ! R8    R(8,11)                 0.9786         estimate D2E/DX2                !
 ! A1    A(1,2,3)              126.1176         estimate D2E/DX2                !
 ! A2    A(1,2,13)             127.0443         estimate D2E/DX2                !
 ! A3    A(3,2,13)             106.7788         estimate D2E/DX2                !
 ! A4    A(1,4,5)              126.1277         estimate D2E/DX2                !
 ! A5    A(1,4,12)             127.036          estimate D2E/DX2                !
 ! A6    A(5,4,12)             106.7814         estimate D2E/DX2                !
 ! A7    A(1,6,7)              127.0386         estimate D2E/DX2                !
 ! A8    A(1,6,10)             126.1237         estimate D2E/DX2                !
 ! A9    A(7,6,10)             106.7814         estimate D2E/DX2                !
 ! A10   A(1,8,9)              126.1423         estimate D2E/DX2                !
 ! A11   A(1,8,11)             127.0177         estimate D2E/DX2                !
 ! A12   A(9,8,11)             106.7838         estimate D2E/DX2                !
 ! D1    D(4,1,2,3)           -133.5949         estimate D2E/DX2                !
 ! D2    D(4,1,2,13)            43.2295         estimate D2E/DX2                !
 ! D3    D(6,1,2,3)            106.4051         estimate D2E/DX2                !
 ! D4    D(6,1,2,13)           -76.7705         estimate D2E/DX2                !
 ! D5    D(8,1,2,3)            -13.5949         estimate D2E/DX2                !
 ! D6    D(8,1,2,13)           163.2295         estimate D2E/DX2                !
 ! D7    D(2,1,4,5)           -133.7888         estimate D2E/DX2                !
 ! D8    D(2,1,4,12)            43.1556         estimate D2E/DX2                !
 ! D9    D(6,1,4,5)            -13.7888         estimate D2E/DX2                !
 ! D10   D(6,1,4,12)           163.1556         estimate D2E/DX2                !
 ! D11   D(8,1,4,5)            106.2112         estimate D2E/DX2                !
 ! D12   D(8,1,4,12)           -76.8444         estimate D2E/DX2                !
 ! D13   D(2,1,6,7)           -163.2636         estimate D2E/DX2                !
 ! D14   D(2,1,6,10)            13.6403         estimate D2E/DX2                !
 ! D15   D(4,1,6,7)             76.7364         estimate D2E/DX2                !
 ! D16   D(4,1,6,10)          -106.3597         estimate D2E/DX2                !
 ! D17   D(8,1,6,7)            -43.2636         estimate D2E/DX2                !
 ! D18   D(8,1,6,10)           133.6403         estimate D2E/DX2                !
 ! D19   D(2,1,8,9)           -106.1864         estimate D2E/DX2                !
 ! D20   D(2,1,8,11)            76.9089         estimate D2E/DX2                !
 ! D21   D(4,1,8,9)             13.8136         estimate D2E/DX2                !
 ! D22   D(4,1,8,11)          -163.0911         estimate D2E/DX2                !
 ! D23   D(6,1,8,9)            133.8136         estimate D2E/DX2                !
 ! D24   D(6,1,8,11)           -43.0911         estimate D2E/DX2                !
 --------------------------------------------------------------------------------
 Trust Radius=3.00D-01 FncErr=1.00D-07 GrdErr=1.00D-06
 Number of steps in this run=     69 maximum allowed number of steps=    100.
 GradGradGradGradGradGradGradGradGradGradGradGradGradGradGradGradGradGrad

                          Input orientation:                          
 ---------------------------------------------------------------------
 Center     Atomic      Atomic             Coordinates (Angstroms)
 Number     Number       Type             X           Y           Z
 ---------------------------------------------------------------------
      1         30           0       -0.000002    0.000012    0.000013
      2          8           0        1.111232   -0.663287    1.404753
      3          1           0        1.008674   -1.520677    1.865418
      4          8           0        1.094120    0.686542   -1.406997
      5          1           0        0.971146    1.540339   -1.869335
      6          8           0       -1.116794    1.394201    0.676114
      7          1           0       -1.925855    1.755226    0.260482
      8          8           0       -1.088565   -1.417409   -0.673819
      9          1           0       -0.971075   -1.879021   -1.528773
     10          1           0       -1.008433    1.856394    1.531951
     11          1           0       -1.890286   -1.793595   -0.257398
     12          1           0        1.903689    0.279263   -1.776338
     13          1           0        1.912248   -0.238661    1.773206
 ---------------------------------------------------------------------
                    Distance matrix (angstroms):
                    1          2          3          4          5
     1  Zn   0.000000
     2  O    1.910000   0.000000
     3  H    2.609532   0.978697   0.000000
     4  O    1.910000   3.119017   3.948141   0.000000
     5  H    2.609635   3.949081   4.829038   0.978697   0.000000
     6  O    1.910000   3.119017   3.798496   3.119017   3.295475
     7  H    2.618689   4.047525   4.681754   3.611484   3.602070
     8  O    1.910000   3.119017   3.294966   3.119018   3.797359
     9  H    2.609777   3.797313   3.945675   3.295751   3.947180
    10  H    2.609583   3.295140   3.947724   3.798249   3.948084
    11  H    2.618485   3.612403   3.603443   4.047139   4.679877
    12  H    2.618672   3.411118   4.159715   0.978617   1.571177
    13  H    2.618755   0.978617   1.571151   3.411601   4.161564
                    6          7          8          9         10
     6  O    0.000000
     7  H    0.978606   0.000000
     8  O    3.119017   3.411684   0.000000
     9  H    3.949271   4.161825   0.978691   0.000000
    10  H    0.978684   1.571157   3.948371   4.829364   0.000000
    11  H    3.410540   3.586586   0.978611   1.571191   4.159550
    12  H    4.047335   4.581758   3.612178   3.603297   4.681087
    13  H    3.611778   4.582025   4.047499   4.680534   3.602476
                   11         12         13
    11  H    0.000000
    12  H    4.582376   0.000000
    13  H    4.582623   3.587141   0.000000
 Stoichiometry    H8O4Zn(2+)
 Framework group  C1[X(H8O4Zn)]
 Deg. of freedom    33
 Full point group                 C1      NOp   1
 Largest Abelian subgroup         C1      NOp   1
 Largest concise Abelian subgroup C1      NOp   1
                         Standard orientation:                         
 ---------------------------------------------------------------------
 Center     Atomic      Atomic             Coordinates (Angstroms)
 Number     Number       Type             X           Y           Z
 ---------------------------------------------------------------------
      1         30           0        0.000002    0.000012   -0.000013
      2          8           0       -1.111232   -0.663287   -1.404753
      3          1           0       -1.008674   -1.520677   -1.865418
      4          8           0       -1.094120    0.686542    1.406997
      5          1           0       -0.971146    1.540339    1.869335
      6          8           0        1.116794    1.394201   -0.676114
      7          1           0        1.925855    1.755226   -0.260482
      8          8           0        1.088565   -1.417409    0.673819
      9          1           0        0.971075   -1.879021    1.528773
     10          1           0        1.008433    1.856394   -1.531951
     11          1           0        1.890286   -1.793595    0.257398
     12          1           0       -1.903689    0.279263    1.776338
     13          1           0       -1.912248   -0.238661   -1.773206
 ---------------------------------------------------------------------
 Rotational constants (GHZ):      2.6311862      2.6258331      2.6257937
 Standard basis: CC-pVTZ (5D, 7F)
 There are   344 symmetry adapted cartesian basis functions of A   symmetry.
 There are   300 symmetry adapted basis functions of A   symmetry.
   300 basis functions,   691 primitive gaussians,   344 cartesian basis functions
    34 alpha electrons       34 beta electrons
       nuclear repulsion energy       446.4431387895 Hartrees.
 NAtoms=   13 NActive=   13 NUniq=   13 SFac= 1.00D+00 NAtFMM=   60 NAOKFM=F Big=F
 Integral buffers will be    131072 words long.
 Raffenetti 2 integral format.
 Two-electron integral symmetry is turned on.
 Standard density basis: def2TZV (5D, 7F)
   110 Density fitting functions
 There are   110 symmetry adapted density basis functions of A   symmetry.
 One-electron integrals computed using PRISM.
 NBasis=   300 RedAO= T EigKep=  1.90D-03  NBF=   300
 NBsUse=   300 1.00D-06 EigRej= -1.00D+00 NBFU=   300
 NBasis=      300 NBas6D=      344 NTT=       45150   NTT6D=    59340
 NDBShl=       68 NDBF=        110 NDBF6D=      113  NNucDB=        0
 IDenFi=        2 ISolve=        0 FullAP=F BlkAPC=T NucTyp=        0
 TolInv= 1.00D-06 TolIt=  1.00D-10 IR12=0.
 FoFCou: FMM=F IPFlag=           0 FMFlag=           0 FMFlg1=           0
         NFxFlg=           0 DoJE=F BraDBF=T KetDBF=T FulRan=T
         wScrn=  0.000000 ICntrl=     600 IOpCl=  3 I1Cent=           6 NGrid=           0
         NMat0=    1 NMatS0=    113 NMatT0=    0 NMatD0=    1 NMtDS0=    0 NMtDT0=    0
 Petite list used in FoFCou.
 DBF EigKep=  8.96D-04 EigRej= -1.00D+00
 NDBF=    110  NBFD=   110
 NRank=   110 NBFDU=   110
 S*AI*S=  8.48862724552    
 ExpMin= 3.77D-02 ExpMax= 5.82D+06 ExpMxC= 6.61D+03 IAcc=3 IRadAn=         5 AccDes= 0.00D+00
 Harris functional with IExCor= 1009 and IRadAn=       5 diagonalized for initial guess.
 HarFok:  IExCor= 1009 AccDes= 0.00D+00 IRadAn=         5 IDoV= 1 UseB2=F ITyADJ=14
 ICtDFT=  3500011 ScaDFX=  1.000000  1.000000  1.000000  1.000000
 FoFCou: FMM=F IPFlag=           0 FMFlag=      100000 FMFlg1=           0
         NFxFlg=           0 DoJE=T BraDBF=F KetDBF=T FulRan=T
         wScrn=  0.000000 ICntrl=     500 IOpCl=  0 I1Cent=   200000004 NGrid=           0
         NMat0=    1 NMatS0=      1 NMatT0=    0 NMatD0=    1 NMtDS0=    0 NMtDT0=    0
 Petite list used in FoFCou.
 Requested convergence on RMS density matrix=1.00D-08 within 128 cycles.
 Requested convergence on MAX density matrix=1.00D-06.
 Requested convergence on             energy=1.00D-06.
 No special actions if energy rises.
 FoFCou: FMM=F IPFlag=           0 FMFlag=      100000 FMFlg1=           0
         NFxFlg=           0 DoJE=T BraDBF=T KetDBF=F FulRan=T
         wScrn=  0.000000 ICntrl=     500 IOpCl=  0 I1Cent=           5 NGrid=           0
         NMat0=    1 NMatS0=      1 NMatT0=    0 NMatD0=    1 NMtDS0=    0 NMtDT0=    0
 Symmetry not used in FoFCou.
 SCF Done:  E(RPBE-PBE) =  -2085.05390023     A.U. after   10 cycles
            NFock= 10  Conv=0.42D-08     -V/T= 2.0021

 **********************************************************************

            Population analysis using the SCF density.

 **********************************************************************

 Orbital symmetries:
       Occupied  (A) (A) (A) (A) (A) (A) (A) (A) (A) (A) (A) (A)
                 (A) (A) (A) (A) (A) (A) (A) (A) (A) (A) (A) (A)
                 (A) (A) (A) (A) (A) (A) (A) (A) (A) (A)
       Virtual   (A) (A) (A) (A) (A) (A) (A) (A) (A) (A) (A) (A)
                 (A) (A) (A) (A) (A) (A) (A) (A) (A) (A) (A) (A)
                 (A) (A) (A) (A) (A) (A) (A) (A) (A) (A) (A) (A)
                 (A) (A) (A) (A) (A) (A) (A) (A) (A) (A) (A) (A)
                 (A) (A) (A) (A) (A) (A) (A) (A) (A) (A) (A) (A)
                 (A) (A) (A) (A) (A) (A) (A) (A) (A) (A) (A) (A)
                 (A) (A) (A) (A) (A) (A) (A) (A) (A) (A) (A) (A)
                 (A) (A) (A) (A) (A) (A) (A) (A) (A) (A) (A) (A)
                 (A) (A) (A) (A) (A) (A) (A) (A) (A) (A) (A) (A)
                 (A) (A) (A) (A) (A) (A) (A) (A) (A) (A) (A) (A)
                 (A) (A) (A) (A) (A) (A) (A) (A) (A) (A) (A) (A)
                 (A) (A) (A) (A) (A) (A) (A) (A) (A) (A) (A) (A)
                 (A) (A) (A) (A) (A) (A) (A) (A) (A) (A) (A) (A)
                 (A) (A) (A) (A) (A) (A) (A) (A) (A) (A) (A) (A)
                 (A) (A) (A) (A) (A) (A) (A) (A) (A) (A) (A) (A)
                 (A) (A) (A) (A) (A) (A) (A) (A) (A) (A) (A) (A)
                 (A) (A) (A) (A) (A) (A) (A) (A) (A) (A) (A) (A)
                 (A) (A) (A) (A) (A) (A) (A) (A) (A) (A) (A) (A)
                 (A) (A) (A) (A) (A) (A) (A) (A) (A) (A) (A) (A)
                 (A) (A) (A) (A) (A) (A) (A) (A) (A) (A) (A) (A)
                 (A) (A) (A) (A) (A) (A) (A) (A) (A) (A) (A) (A)
                 (A) (A) (A) (A) (A) (A) (A) (A) (A) (A) (A) (A)
                 (A) (A)
 The electronic state is 1-A.
 Alpha  occ. eigenvalues -- -346.00599 -42.27470 -37.35798 -37.35798 -37.35776
 Alpha  occ. eigenvalues --  -19.15380 -19.15380 -19.15380 -19.15379  -5.05337
 Alpha  occ. eigenvalues --   -3.45574  -3.45574  -3.45560  -1.32485  -1.31995
 Alpha  occ. eigenvalues --   -1.31994  -1.31993  -0.87302  -0.86861  -0.86673
 Alpha  occ. eigenvalues --   -0.86671  -0.83638  -0.83066  -0.83044  -0.83044
 Alpha  occ. eigenvalues --   -0.77278  -0.77079  -0.71972  -0.71971  -0.71722
 Alpha  occ. eigenvalues --   -0.66209  -0.66075  -0.66067  -0.66066
 Alpha virt. eigenvalues --   -0.39101  -0.31938  -0.31938  -0.31881  -0.24705
 Alpha virt. eigenvalues --   -0.23978  -0.23978  -0.23906  -0.23326  -0.21517
 Alpha virt. eigenvalues --   -0.21447  -0.21447  -0.16526  -0.11494  -0.10283
 Alpha virt. eigenvalues --   -0.10280  -0.02934  -0.02109   0.02482   0.03541
 Alpha virt. eigenvalues --    0.03543   0.05041   0.11531   0.11532   0.17467
 Alpha virt. eigenvalues --    0.18262   0.18479   0.19364   0.19366   0.20290
 Alpha virt. eigenvalues --    0.21266   0.24510   0.25508   0.25511   0.26998
 Alpha virt. eigenvalues --    0.28880   0.29394   0.29396   0.30098   0.34133
 Alpha virt. eigenvalues --    0.34135   0.34678   0.35486   0.35489   0.39784
 Alpha virt. eigenvalues --    0.40102   0.43902   0.43903   0.49373   0.51810
 Alpha virt. eigenvalues --    0.51812   0.60593   0.61633   0.63036   0.71024
 Alpha virt. eigenvalues --    0.71028   0.73268   0.74632   0.77060   0.77063
 Alpha virt. eigenvalues --    0.77125   0.86995   0.89017   0.89365   0.89367
 Alpha virt. eigenvalues --    0.92504   0.94959   0.94961   0.96204   1.10196
 Alpha virt. eigenvalues --    1.10485   1.12379   1.12383   1.27523   1.27526
 Alpha virt. eigenvalues --    1.29622   1.30846   1.33236   1.33242   1.40496
 Alpha virt. eigenvalues --    1.40535   1.44062   1.47715   1.49283   1.49287
 Alpha virt. eigenvalues --    1.55937   1.57436   1.59676   1.59678   1.63483
 Alpha virt. eigenvalues --    1.64052   1.73636   1.73646   1.89340   1.91402
 Alpha virt. eigenvalues --    1.96603   1.96605   2.19946   2.21623   2.21628
 Alpha virt. eigenvalues --    2.24807   2.39439   2.43052   2.43059   2.50343
 Alpha virt. eigenvalues --    2.60174   2.63002   2.63004   2.63050   2.64516
 Alpha virt. eigenvalues --    2.78813   2.80578   2.80581   2.80881   2.81279
 Alpha virt. eigenvalues --    2.85329   2.86318   2.86321   2.89146   2.89253
 Alpha virt. eigenvalues --    2.89255   2.90384   2.91562   2.91565   2.95635
 Alpha virt. eigenvalues --    2.98136   3.04153   3.05552   3.06886   3.06887
 Alpha virt. eigenvalues --    3.19900   3.19903   3.20036   3.20776   3.21265
 Alpha virt. eigenvalues --    3.25265   3.25266   3.25360   3.26424   3.27529
 Alpha virt. eigenvalues --    3.27531   3.29913   3.30670   3.37655   3.37916
 Alpha virt. eigenvalues --    3.37920   3.40292   3.40293   3.40988   3.43360
 Alpha virt. eigenvalues --    3.46910   3.53651   3.53657   3.54814   3.56362
 Alpha virt. eigenvalues --    3.56365   3.56817   3.59046   3.60744   3.60752
 Alpha virt. eigenvalues --    3.61391   3.75194   3.76138   3.76142   3.80454
 Alpha virt. eigenvalues --    3.83888   3.83914   3.85333   3.86526   3.86530
 Alpha virt. eigenvalues --    3.86912   3.86915   3.87925   4.10294   4.11622
 Alpha virt. eigenvalues --    4.15116   4.15119   4.21928   4.21980   4.22155
 Alpha virt. eigenvalues --    4.22160   4.33482   4.34750   4.34754   4.35492
 Alpha virt. eigenvalues --    4.54386   4.55149   4.55153   4.59076   4.63510
 Alpha virt. eigenvalues --    4.65470   4.69406   4.69408   5.05212   5.05214
 Alpha virt. eigenvalues --    5.06026   5.07490   5.55011   5.55153   5.55155
 Alpha virt. eigenvalues --    5.56281   5.84100   5.84883   5.84888   5.86836
 Alpha virt. eigenvalues --    5.86839   5.87901   5.90723   5.90935   5.99668
 Alpha virt. eigenvalues --    5.99670   6.03948   6.04797   6.09332   6.10001
 Alpha virt. eigenvalues --    6.13695   6.13703   6.19530   6.19533   6.19677
 Alpha virt. eigenvalues --    6.21423   6.21652   6.21774   6.21969   6.21971
 Alpha virt. eigenvalues --    6.34412   6.37345   6.37349   6.40342   6.48405
 Alpha virt. eigenvalues --    6.48974   6.54967   6.54971   6.74562   6.77120
 Alpha virt. eigenvalues --    6.77123   6.77838   7.25648   7.28159   7.28163
 Alpha virt. eigenvalues --    7.31037   9.83428   9.87104   9.99657  10.01014
 Alpha virt. eigenvalues --   10.01018  11.97724  12.02131  12.02152  12.09536
 Alpha virt. eigenvalues --   14.77395  14.77444  14.77445  14.83159  14.83305
 Alpha virt. eigenvalues --   14.83305  14.91277  15.38668  15.38707  15.38793
 Alpha virt. eigenvalues --   15.38794  15.38847  15.39116  15.39283  15.39285
 Alpha virt. eigenvalues --   15.39356
     Molecular Orbital Coefficients:
                           1         2         3         4         5
                           O         O         O         O         O
     Eigenvalues --  -346.00599 -42.27470 -37.35798 -37.35798 -37.35776
   1 1   Zn 1S          1.00072  -0.30970   0.00000  -0.00000   0.00000
   2        2S         -0.00242   1.04888  -0.00000   0.00000  -0.00000
   3        3S          0.00049   0.00086  -0.00000  -0.00000   0.00000
   4        4S         -0.00075  -0.00069  -0.00000   0.00000  -0.00000
   5        5S         -0.00027  -0.00239   0.00000  -0.00000  -0.00000
   6        6S         -0.00002  -0.00303   0.00000   0.00000  -0.00000
   7        7S         -0.00023  -0.00022   0.00000   0.00000   0.00000
   8        8PX         0.00000   0.00000   0.01850   0.00183   1.00066
   9        8PY         0.00000   0.00000   0.99814   0.07089  -0.01858
  10        8PZ        -0.00000  -0.00000  -0.07091   0.99832  -0.00051
  11        9PX        -0.00000  -0.00000   0.00005   0.00001   0.00286
  12        9PY        -0.00000  -0.00000   0.00285   0.00022  -0.00005
  13        9PZ         0.00000   0.00000  -0.00022   0.00285  -0.00000
  14       10PX        -0.00000  -0.00000   0.00001   0.00000   0.00064
  15       10PY         0.00000  -0.00000   0.00062   0.00014  -0.00001
  16       10PZ         0.00000   0.00000  -0.00014   0.00062   0.00000
  17       11PX         0.00000   0.00000  -0.00006  -0.00001  -0.00324
  18       11PY         0.00000   0.00000  -0.00322  -0.00029   0.00006
  19       11PZ        -0.00000  -0.00000   0.00029  -0.00322   0.00000
  20       12PX         0.00000   0.00000   0.00004   0.00000   0.00215
  21       12PY        -0.00000  -0.00000   0.00214   0.00015  -0.00004
  22       12PZ        -0.00000  -0.00000  -0.00015   0.00214  -0.00000
  23       13PX         0.00000   0.00000  -0.00000  -0.00000  -0.00024
  24       13PY         0.00000   0.00000  -0.00023  -0.00002   0.00000
  25       13PZ        -0.00000  -0.00000   0.00002  -0.00023   0.00000
  26       14D 0       -0.00000  -0.00000  -0.00000   0.00000  -0.00001
  27       14D+1        0.00000  -0.00000  -0.00001  -0.00002  -0.00000
  28       14D-1       -0.00000  -0.00000  -0.00000   0.00000  -0.00002
  29       14D+2        0.00000   0.00000   0.00000  -0.00000  -0.00001
  30       14D-2       -0.00000  -0.00000   0.00002  -0.00001  -0.00000
  31       15D 0       -0.00000  -0.00000   0.00000   0.00000   0.00000
  32       15D+1        0.00000  -0.00000   0.00001  -0.00001  -0.00000
  33       15D-1       -0.00000  -0.00000  -0.00000   0.00000  -0.00001
  34       15D+2        0.00000   0.00000   0.00000   0.00000   0.00000
  35       15D-2       -0.00000  -0.00000   0.00001   0.00001  -0.00000
  36       16D 0        0.00000   0.00000  -0.00000  -0.00000  -0.00001
  37       16D+1       -0.00000   0.00000  -0.00001  -0.00001  -0.00000
  38       16D-1        0.00000  -0.00000  -0.00000   0.00000  -0.00001
  39       16D+2       -0.00000  -0.00000   0.00000  -0.00000  -0.00000
  40       16D-2        0.00000   0.00000   0.00001  -0.00001   0.00000
  41       17D 0       -0.00000  -0.00000   0.00000  -0.00000   0.00023
  42       17D+1        0.00000   0.00000   0.00033   0.00026   0.00000
  43       17D-1       -0.00000  -0.00000  -0.00000  -0.00000   0.00031
  44       17D+2        0.00000   0.00000  -0.00000   0.00001   0.00014
  45       17D-2       -0.00000  -0.00000  -0.00026   0.00033  -0.00000
  46       18F 0        0.00000   0.00000   0.00001  -0.00000  -0.00000
  47       18F+1       -0.00000  -0.00001   0.00000   0.00000   0.00001
  48       18F-1        0.00000   0.00000  -0.00000   0.00001  -0.00000
  49       18F+2       -0.00000  -0.00000   0.00001   0.00001  -0.00000
  50       18F-2       -0.00000  -0.00002  -0.00000  -0.00000   0.00000
  51       18F+3       -0.00000  -0.00001   0.00000   0.00000  -0.00001
  52       18F-3        0.00000   0.00000   0.00001   0.00000   0.00000
  53       19F 0       -0.00000  -0.00000  -0.00002   0.00002   0.00000
  54       19F+1        0.00000   0.00001  -0.00000  -0.00000  -0.00002
  55       19F-1       -0.00000  -0.00000   0.00000  -0.00002   0.00000
  56       19F+2        0.00000   0.00000  -0.00001  -0.00001   0.00000
  57       19F-2        0.00001   0.00001   0.00000   0.00000  -0.00000
  58       19F+3        0.00000   0.00001  -0.00000  -0.00000   0.00002
  59       19F-3       -0.00000  -0.00000  -0.00002  -0.00001  -0.00000
  60       20G 0        0.00000   0.00000   0.00000  -0.00000   0.00000
  61       20G+1       -0.00000   0.00000   0.00000  -0.00000   0.00000
  62       20G-1       -0.00000   0.00000   0.00000   0.00000   0.00000
  63       20G+2       -0.00000   0.00000  -0.00000  -0.00000  -0.00000
  64       20G-2        0.00000  -0.00000  -0.00000  -0.00000   0.00000
  65       20G+3       -0.00000   0.00000   0.00000  -0.00000  -0.00000
  66       20G-3       -0.00000   0.00000  -0.00000   0.00000  -0.00000
  67       20G+4        0.00000  -0.00000  -0.00000  -0.00000  -0.00000
  68       20G-4       -0.00000   0.00000  -0.00000  -0.00000   0.00000
  69 2   O  1S          0.00001   0.00000   0.00001   0.00000   0.00000
  70        2S          0.00002   0.00001   0.00004   0.00004   0.00003
  71        3S         -0.00001  -0.00001   0.00001   0.00003   0.00002
  72        4S          0.00001   0.00002  -0.00012  -0.00035  -0.00022
  73        5PX        -0.00000  -0.00000   0.00000   0.00001   0.00001
  74        5PY        -0.00000  -0.00000   0.00000   0.00001   0.00000
  75        5PZ        -0.00000  -0.00000   0.00001   0.00001   0.00001
  76        6PX        -0.00000  -0.00000  -0.00000   0.00002  -0.00000
  77        6PY        -0.00000  -0.00000  -0.00001   0.00001   0.00000
  78        6PZ        -0.00000  -0.00001  -0.00000   0.00001   0.00001
  79        7PX         0.00002   0.00006  -0.00013  -0.00027  -0.00028
  80        7PY         0.00001   0.00003  -0.00016  -0.00019  -0.00014
  81        7PZ         0.00002   0.00006  -0.00017  -0.00040  -0.00028
  82        8D 0       -0.00000  -0.00000   0.00001   0.00001   0.00002
  83        8D+1       -0.00000  -0.00000   0.00002   0.00004   0.00002
  84        8D-1       -0.00000  -0.00000  -0.00000   0.00002   0.00003
  85        8D+2       -0.00000  -0.00000   0.00001   0.00001   0.00000
  86        8D-2       -0.00000  -0.00000  -0.00001   0.00002   0.00001
  87        9D 0        0.00000   0.00000  -0.00003  -0.00002  -0.00007
  88        9D+1        0.00002   0.00002  -0.00009  -0.00016  -0.00008
  89        9D-1        0.00001   0.00001   0.00001  -0.00007  -0.00011
  90        9D+2        0.00000   0.00000  -0.00004  -0.00004   0.00000
  91        9D-2        0.00000   0.00000   0.00003  -0.00006  -0.00003
  92       10F 0       -0.00000  -0.00000  -0.00000   0.00001  -0.00000
  93       10F+1        0.00000   0.00000  -0.00001  -0.00002  -0.00002
  94       10F-1        0.00000   0.00000  -0.00001  -0.00001  -0.00001
  95       10F+2        0.00000   0.00000  -0.00000  -0.00001  -0.00001
  96       10F-2        0.00000   0.00000  -0.00001  -0.00002  -0.00002
  97       10F+3       -0.00000  -0.00000  -0.00000   0.00000  -0.00000
  98       10F-3        0.00000   0.00000   0.00000  -0.00002  -0.00000
  99 3   H  1S          0.00000   0.00000  -0.00002  -0.00001   0.00002
 100        2S         -0.00002  -0.00001  -0.00007  -0.00001  -0.00000
 101        3S          0.00002   0.00002  -0.00006  -0.00008  -0.00005
 102        4PX         0.00000   0.00001  -0.00001  -0.00004  -0.00002
 103        4PY        -0.00000  -0.00000  -0.00001   0.00001   0.00002
 104        4PZ         0.00000   0.00000  -0.00001  -0.00002  -0.00001
 105        5PX        -0.00001  -0.00002   0.00006   0.00007   0.00007
 106        5PY        -0.00001  -0.00000  -0.00001   0.00001   0.00002
 107        5PZ        -0.00001  -0.00002   0.00003   0.00010   0.00003
 108        6D 0        0.00000   0.00000   0.00001  -0.00000  -0.00001
 109        6D+1       -0.00000  -0.00000   0.00002   0.00001   0.00001
 110        6D-1       -0.00000  -0.00000   0.00001   0.00002  -0.00000
 111        6D+2        0.00000   0.00000  -0.00000   0.00000  -0.00001
 112        6D-2        0.00000   0.00000   0.00001  -0.00002  -0.00001
 113 4   O  1S          0.00001   0.00000  -0.00000  -0.00000   0.00000
 114        2S          0.00002   0.00001  -0.00004  -0.00004   0.00004
 115        3S         -0.00001  -0.00001  -0.00001  -0.00003   0.00002
 116        4S          0.00001   0.00002   0.00012   0.00035  -0.00023
 117        5PX        -0.00000  -0.00000  -0.00000  -0.00001   0.00001
 118        5PY         0.00000   0.00000   0.00000   0.00001  -0.00000
 119        5PZ         0.00000   0.00000   0.00001   0.00001  -0.00001
 120        6PX        -0.00000  -0.00000   0.00000  -0.00002  -0.00000
 121        6PY         0.00000   0.00000  -0.00001   0.00001  -0.00000
 122        6PZ         0.00000   0.00001  -0.00000   0.00001  -0.00001
 123        7PX         0.00002   0.00005   0.00012   0.00027  -0.00028
 124        7PY        -0.00001  -0.00003  -0.00016  -0.00019   0.00014
 125        7PZ        -0.00002  -0.00006  -0.00017  -0.00040   0.00028
 126        8D 0       -0.00000  -0.00000  -0.00001  -0.00001   0.00002
 127        8D+1        0.00000   0.00000   0.00002   0.00003  -0.00002
 128        8D-1       -0.00000  -0.00000   0.00000  -0.00002   0.00003
 129        8D+2       -0.00000  -0.00000  -0.00001  -0.00001  -0.00000
 130        8D-2        0.00000   0.00000  -0.00001   0.00002  -0.00001
 131        9D 0        0.00000   0.00000   0.00002   0.00002  -0.00007
 132        9D+1       -0.00002  -0.00002  -0.00009  -0.00016   0.00008
 133        9D-1        0.00001   0.00001  -0.00001   0.00008  -0.00011
 134        9D+2        0.00000   0.00000   0.00004   0.00003   0.00000
 135        9D-2       -0.00000  -0.00000   0.00003  -0.00006   0.00003
 136       10F 0        0.00000   0.00000  -0.00000   0.00001   0.00000
 137       10F+1        0.00000   0.00000   0.00001   0.00002  -0.00002
 138       10F-1       -0.00000  -0.00000  -0.00001  -0.00001   0.00001
 139       10F+2       -0.00000  -0.00000  -0.00000  -0.00001   0.00001
 140       10F-2        0.00000   0.00000   0.00001   0.00002  -0.00002
 141       10F+3       -0.00000  -0.00000   0.00000  -0.00000  -0.00000
 142       10F-3       -0.00000  -0.00000   0.00000  -0.00002   0.00000
 143 5   H  1S          0.00000   0.00000   0.00002   0.00001   0.00002
 144        2S         -0.00002  -0.00001   0.00007   0.00001  -0.00000
 145        3S          0.00002   0.00002   0.00006   0.00008  -0.00005
 146        4PX         0.00000   0.00001   0.00001   0.00004  -0.00002
 147        4PY         0.00000   0.00000  -0.00001   0.00001  -0.00002
 148        4PZ        -0.00000  -0.00000  -0.00001  -0.00002   0.00001
 149        5PX        -0.00001  -0.00002  -0.00006  -0.00007   0.00007
 150        5PY         0.00001   0.00000  -0.00000   0.00001  -0.00002
 151        5PZ         0.00001   0.00002   0.00003   0.00010  -0.00003
 152        6D 0        0.00000   0.00000  -0.00001   0.00000  -0.00001
 153        6D+1        0.00000   0.00000   0.00002   0.00001  -0.00001
 154        6D-1       -0.00000  -0.00000  -0.00001  -0.00002  -0.00000
 155        6D+2        0.00000   0.00000   0.00000  -0.00000  -0.00001
 156        6D-2       -0.00000  -0.00000   0.00001  -0.00002   0.00001
 157 6   O  1S          0.00001   0.00000  -0.00000   0.00000  -0.00000
 158        2S          0.00002   0.00001  -0.00004   0.00004  -0.00003
 159        3S         -0.00001  -0.00001  -0.00003   0.00001  -0.00002
 160        4S          0.00001   0.00002   0.00035  -0.00012   0.00022
 161        5PX         0.00000   0.00000   0.00001  -0.00000   0.00001
 162        5PY         0.00000   0.00000   0.00001  -0.00001   0.00001
 163        5PZ        -0.00000  -0.00000  -0.00001   0.00000  -0.00000
 164        6PX         0.00000   0.00000   0.00002   0.00000  -0.00000
 165        6PY         0.00000   0.00001   0.00001   0.00000   0.00001
 166        6PZ        -0.00000  -0.00000  -0.00001  -0.00001  -0.00000
 167        7PX        -0.00002  -0.00006  -0.00028   0.00013  -0.00028
 168        7PY        -0.00002  -0.00006  -0.00040   0.00017  -0.00027
 169        7PZ         0.00001   0.00003   0.00019  -0.00016   0.00014
 170        8D 0        0.00000   0.00000   0.00001  -0.00001   0.00001
 171        8D+1        0.00000   0.00000   0.00002   0.00001   0.00001
 172        8D-1        0.00000   0.00000   0.00002   0.00000   0.00003
 173        8D+2        0.00000   0.00000   0.00000  -0.00000   0.00002
 174        8D-2       -0.00000  -0.00000  -0.00003   0.00002  -0.00002
 175        9D 0       -0.00000  -0.00000  -0.00004   0.00005  -0.00003
 176        9D+1       -0.00000  -0.00000  -0.00006  -0.00003  -0.00003
 177        9D-1       -0.00001  -0.00001  -0.00007  -0.00001  -0.00011
 178        9D+2       -0.00000  -0.00000  -0.00000  -0.00000  -0.00006
 179        9D-2        0.00002   0.00002   0.00016  -0.00009   0.00008
 180       10F 0       -0.00000  -0.00000  -0.00002   0.00000  -0.00001
 181       10F+1        0.00000   0.00000   0.00000  -0.00000   0.00001
 182       10F-1        0.00000   0.00000   0.00000  -0.00000   0.00001
 183       10F+2       -0.00000  -0.00000  -0.00000   0.00001  -0.00001
 184       10F-2        0.00000   0.00000   0.00002  -0.00001   0.00002
 185       10F+3        0.00000   0.00000   0.00002  -0.00001   0.00002
 186       10F-3       -0.00000  -0.00000  -0.00002  -0.00000  -0.00001
 187 7   H  1S          0.00000   0.00000   0.00000   0.00003   0.00002
 188        2S         -0.00002   0.00001  -0.00003   0.00001   0.00004
 189        3S          0.00002   0.00003   0.00007  -0.00002   0.00007
 190        4PX         0.00000   0.00000   0.00001  -0.00002  -0.00001
 191        4PY        -0.00000  -0.00000  -0.00003  -0.00000  -0.00002
 192        4PZ         0.00000   0.00001   0.00004  -0.00002   0.00002
 193        5PX         0.00001   0.00001   0.00005  -0.00001   0.00005
 194        5PY         0.00001   0.00002   0.00010  -0.00000   0.00007
 195        5PZ        -0.00000  -0.00001  -0.00005   0.00003  -0.00007
 196        6D 0        0.00000   0.00000  -0.00001   0.00000   0.00001
 197        6D+1       -0.00000  -0.00000  -0.00002   0.00000  -0.00001
 198        6D-1        0.00000   0.00000   0.00001  -0.00001   0.00001
 199        6D+2       -0.00000  -0.00000  -0.00001   0.00001  -0.00000
 200        6D-2       -0.00000  -0.00000  -0.00002  -0.00001  -0.00002
 201 8   O  1S          0.00001   0.00000   0.00000  -0.00000  -0.00000
 202        2S          0.00002   0.00001   0.00004  -0.00004  -0.00004
 203        3S         -0.00001  -0.00001   0.00003  -0.00001  -0.00002
 204        4S          0.00001   0.00002  -0.00034   0.00012   0.00023
 205        5PX         0.00000   0.00000  -0.00001   0.00000   0.00001
 206        5PY        -0.00000  -0.00000   0.00001  -0.00001  -0.00001
 207        5PZ         0.00000   0.00000  -0.00001   0.00000   0.00000
 208        6PX         0.00000   0.00000  -0.00002  -0.00000  -0.00000
 209        6PY        -0.00000  -0.00001   0.00001   0.00000  -0.00001
 210        6PZ         0.00000   0.00000  -0.00001  -0.00001   0.00000
 211        7PX        -0.00002  -0.00005   0.00026  -0.00012  -0.00028
 212        7PY         0.00002   0.00006  -0.00040   0.00017   0.00029
 213        7PZ        -0.00001  -0.00003   0.00019  -0.00016  -0.00014
 214        8D 0        0.00000   0.00000  -0.00001   0.00001   0.00001
 215        8D+1       -0.00000  -0.00000   0.00002   0.00001  -0.00001
 216        8D-1        0.00000   0.00000  -0.00002  -0.00000   0.00003
 217        8D+2        0.00000   0.00000  -0.00000   0.00000   0.00002
 218        8D-2        0.00000   0.00000  -0.00003   0.00002   0.00002
 219        9D 0       -0.00000  -0.00000   0.00004  -0.00005  -0.00003
 220        9D+1        0.00000   0.00000  -0.00006  -0.00003   0.00003
 221        9D-1       -0.00001  -0.00001   0.00007   0.00001  -0.00011
 222        9D+2       -0.00000  -0.00000   0.00001  -0.00000  -0.00006
 223        9D-2       -0.00002  -0.00002   0.00016  -0.00009  -0.00008
 224       10F 0        0.00000   0.00000  -0.00002   0.00000   0.00001
 225       10F+1        0.00000   0.00000  -0.00000   0.00000   0.00001
 226       10F-1       -0.00000  -0.00000   0.00000  -0.00000  -0.00001
 227       10F+2        0.00000   0.00000  -0.00000   0.00001   0.00001
 228       10F-2        0.00000   0.00000  -0.00002   0.00001   0.00002
 229       10F+3        0.00000   0.00000  -0.00002   0.00001   0.00002
 230       10F-3        0.00000   0.00000  -0.00001  -0.00000   0.00000
 231 9   H  1S          0.00000   0.00000  -0.00001   0.00002  -0.00002
 232        2S         -0.00002  -0.00001  -0.00001   0.00007   0.00000
 233        3S          0.00002   0.00002  -0.00008   0.00006   0.00005
 234        4PX        -0.00000  -0.00001   0.00004  -0.00001  -0.00002
 235        4PY         0.00000   0.00000  -0.00002   0.00001   0.00001
 236        4PZ         0.00000   0.00000  -0.00001  -0.00001   0.00002
 237        5PX         0.00001   0.00002  -0.00007   0.00006   0.00007
 238        5PY        -0.00001  -0.00002   0.00010  -0.00003  -0.00003
 239        5PZ         0.00001   0.00000  -0.00001  -0.00001   0.00002
 240        6D 0       -0.00000  -0.00000   0.00000   0.00000  -0.00002
 241        6D+1        0.00000   0.00000  -0.00002  -0.00001   0.00001
 242        6D-1        0.00000   0.00000  -0.00002   0.00001  -0.00000
 243        6D+2        0.00000   0.00000   0.00000   0.00001  -0.00001
 244        6D-2        0.00000   0.00000  -0.00001   0.00002   0.00001
 245 10  H  1S          0.00000   0.00000   0.00001  -0.00002  -0.00002
 246        2S         -0.00002  -0.00001   0.00001  -0.00007   0.00000
 247        3S          0.00002   0.00002   0.00008  -0.00006   0.00005
 248        4PX        -0.00000  -0.00001  -0.00004   0.00001  -0.00002
 249        4PY        -0.00000  -0.00000  -0.00002   0.00001  -0.00001
 250        4PZ        -0.00000  -0.00000  -0.00001  -0.00001  -0.00002
 251        5PX         0.00001   0.00002   0.00007  -0.00006   0.00007
 252        5PY         0.00001   0.00002   0.00010  -0.00003   0.00003
 253        5PZ        -0.00001  -0.00000  -0.00001  -0.00001  -0.00002
 254        6D 0       -0.00000  -0.00000  -0.00000  -0.00000  -0.00002
 255        6D+1       -0.00000  -0.00000  -0.00002  -0.00001  -0.00001
 256        6D-1        0.00000   0.00000   0.00002  -0.00001  -0.00000
 257        6D+2        0.00000   0.00000  -0.00000  -0.00000  -0.00001
 258        6D-2       -0.00000  -0.00000  -0.00001   0.00002  -0.00001
 259 11  H  1S          0.00000   0.00000  -0.00000  -0.00003   0.00002
 260        2S         -0.00002   0.00001   0.00003  -0.00001   0.00004
 261        3S          0.00002   0.00003  -0.00007   0.00002   0.00007
 262        4PX         0.00000   0.00000  -0.00001   0.00002  -0.00001
 263        4PY         0.00000   0.00000  -0.00002  -0.00000   0.00002
 264        4PZ        -0.00000  -0.00001   0.00004  -0.00002  -0.00003
 265        5PX         0.00001   0.00001  -0.00005   0.00001   0.00005
 266        5PY        -0.00001  -0.00002   0.00010  -0.00000  -0.00007
 267        5PZ         0.00000   0.00001  -0.00005   0.00003   0.00007
 268        6D 0        0.00000   0.00000   0.00001  -0.00000   0.00001
 269        6D+1        0.00000   0.00000  -0.00002   0.00000   0.00001
 270        6D-1        0.00000   0.00000  -0.00000   0.00001   0.00001
 271        6D+2       -0.00000  -0.00000   0.00001  -0.00001  -0.00000
 272        6D-2        0.00000   0.00000  -0.00002  -0.00001   0.00002
 273 12  H  1S          0.00000   0.00000  -0.00003   0.00000  -0.00002
 274        2S         -0.00002   0.00001  -0.00001  -0.00003  -0.00004
 275        3S          0.00002   0.00003   0.00002   0.00007  -0.00007
 276        4PX        -0.00000  -0.00000  -0.00002  -0.00001  -0.00001
 277        4PY        -0.00000  -0.00001  -0.00002  -0.00004   0.00003
 278        4PZ        -0.00000  -0.00000   0.00000  -0.00002   0.00002
 279        5PX        -0.00001  -0.00001  -0.00001  -0.00005   0.00005
 280        5PY         0.00000   0.00001   0.00003   0.00005  -0.00007
 281        5PZ         0.00001   0.00002   0.00000   0.00010  -0.00007
 282        6D 0        0.00000   0.00000   0.00001   0.00001   0.00000
 283        6D+1        0.00000   0.00000  -0.00001   0.00002  -0.00002
 284        6D-1       -0.00000  -0.00000  -0.00001  -0.00001   0.00001
 285        6D+2       -0.00000  -0.00000  -0.00000   0.00000   0.00000
 286        6D-2       -0.00000  -0.00000  -0.00000  -0.00002   0.00001
 287 13  H  1S          0.00000   0.00000   0.00003  -0.00000  -0.00002
 288        2S         -0.00002   0.00001   0.00001   0.00003  -0.00004
 289        3S          0.00002   0.00003  -0.00002  -0.00007  -0.00007
 290        4PX        -0.00000  -0.00000   0.00002   0.00001  -0.00001
 291        4PY         0.00000   0.00001  -0.00002  -0.00004  -0.00002
 292        4PZ         0.00000   0.00000   0.00000  -0.00002  -0.00002
 293        5PX        -0.00001  -0.00001   0.00001   0.00005   0.00005
 294        5PY        -0.00000  -0.00001   0.00003   0.00005   0.00007
 295        5PZ        -0.00001  -0.00002   0.00000   0.00010   0.00007
 296        6D 0        0.00000   0.00000  -0.00001  -0.00001   0.00000
 297        6D+1       -0.00000  -0.00000  -0.00001   0.00002   0.00002
 298        6D-1       -0.00000  -0.00000   0.00001   0.00001   0.00001
 299        6D+2       -0.00000  -0.00000   0.00000  -0.00000   0.00000
 300        6D-2        0.00000   0.00000  -0.00001  -0.00002  -0.00001
                           6         7         8         9        10
                           O         O         O         O         O
     Eigenvalues --   -19.15380 -19.15380 -19.15380 -19.15379  -5.05337
   1 1   Zn 1S          0.00000   0.00000   0.00000   0.00000   0.11646
   2        2S         -0.00000  -0.00000  -0.00001  -0.00000  -0.44874
   3        3S         -0.00007  -0.00010  -0.00014  -0.00011   0.27402
   4        4S          0.00019   0.00028   0.00039   0.00032   0.00150
   5        5S          0.00007   0.00010   0.00015   0.00012   1.02037
   6        6S         -0.00001  -0.00001  -0.00002  -0.00001   0.75239
   7        7S          0.00008   0.00011   0.00015   0.00013  -0.00079
   8        8PX         0.00001  -0.00000  -0.00001   0.00001  -0.00000
   9        8PY         0.00001  -0.00001   0.00001  -0.00001   0.00000
  10        8PZ         0.00001   0.00001  -0.00000  -0.00001   0.00000
  11        9PX         0.00013  -0.00005  -0.00011   0.00010   0.00000
  12        9PY         0.00007  -0.00011   0.00009  -0.00005  -0.00000
  13        9PZ         0.00009   0.00009  -0.00002  -0.00010  -0.00000
  14       10PX        -0.00053   0.00020   0.00044  -0.00040  -0.00000
  15       10PY        -0.00057   0.00051  -0.00048   0.00047   0.00000
  16       10PZ        -0.00043  -0.00071   0.00028   0.00053  -0.00000
  17       11PX         0.00011  -0.00004  -0.00009   0.00008   0.00000
  18       11PY         0.00019  -0.00013   0.00013  -0.00016  -0.00000
  19       11PZ         0.00011   0.00023  -0.00010  -0.00014   0.00000
  20       12PX         0.00004  -0.00002  -0.00003   0.00003  -0.00000
  21       12PY         0.00003  -0.00004   0.00003  -0.00002   0.00000
  22       12PZ         0.00003   0.00004  -0.00001  -0.00003   0.00000
  23       13PX        -0.00001   0.00001   0.00001  -0.00001   0.00000
  24       13PY         0.00009   0.00003   0.00001  -0.00009   0.00000
  25       13PZ        -0.00002   0.00011  -0.00007   0.00000  -0.00000
  26       14D 0       -0.00003   0.00001   0.00003  -0.00002   0.00000
  27       14D+1       -0.00004   0.00005  -0.00004   0.00003   0.00000
  28       14D-1       -0.00003   0.00001   0.00002  -0.00002  -0.00000
  29       14D+2       -0.00002   0.00000   0.00001  -0.00002  -0.00001
  30       14D-2       -0.00004  -0.00005   0.00002   0.00005   0.00000
  31       15D 0       -0.00002   0.00002   0.00003  -0.00001  -0.00000
  32       15D+1        0.00001   0.00010  -0.00006  -0.00003  -0.00000
  33       15D-1        0.00001  -0.00000  -0.00001   0.00001  -0.00000
  34       15D+2       -0.00003  -0.00000  -0.00000  -0.00002   0.00000
  35       15D-2       -0.00008   0.00001  -0.00003   0.00008  -0.00000
  36       16D 0        0.00001  -0.00000  -0.00001   0.00001   0.00001
  37       16D+1        0.00001  -0.00002   0.00001  -0.00001   0.00000
  38       16D-1        0.00001  -0.00000  -0.00001   0.00001  -0.00000
  39       16D+2        0.00001  -0.00000  -0.00000   0.00001  -0.00001
  40       16D-2        0.00001   0.00002  -0.00001  -0.00002   0.00000
  41       17D 0        0.00012  -0.00002  -0.00006   0.00010   0.00000
  42       17D+1        0.00029   0.00018  -0.00002  -0.00031  -0.00000
  43       17D-1        0.00018  -0.00007  -0.00016   0.00014  -0.00000
  44       17D+2        0.00003  -0.00005  -0.00010   0.00001  -0.00000
  45       17D-2       -0.00015   0.00035  -0.00025   0.00009   0.00000
  46       18F 0        0.00000  -0.00001   0.00001   0.00000   0.00000
  47       18F+1        0.00001   0.00000   0.00000   0.00001  -0.00009
  48       18F-1        0.00000   0.00000  -0.00000  -0.00001   0.00000
  49       18F+2        0.00000  -0.00000   0.00000  -0.00000  -0.00000
  50       18F-2        0.00000   0.00001   0.00001   0.00001  -0.00015
  51       18F+3       -0.00000   0.00000   0.00001  -0.00000  -0.00007
  52       18F-3        0.00001  -0.00000   0.00000  -0.00000   0.00000
  53       19F 0       -0.00000   0.00003  -0.00002  -0.00000  -0.00000
  54       19F+1       -0.00003  -0.00000  -0.00000  -0.00003   0.00003
  55       19F-1       -0.00002  -0.00002   0.00001   0.00002  -0.00000
  56       19F+2       -0.00002  -0.00000  -0.00001   0.00002   0.00000
  57       19F-2       -0.00001  -0.00002  -0.00003  -0.00002   0.00009
  58       19F+3        0.00002  -0.00002  -0.00003   0.00001   0.00002
  59       19F-3       -0.00002   0.00001  -0.00001   0.00002  -0.00000
  60       20G 0       -0.00000  -0.00000   0.00000  -0.00000   0.00000
  61       20G+1        0.00000   0.00000  -0.00000  -0.00000   0.00000
  62       20G-1       -0.00000   0.00000   0.00000   0.00000   0.00002
  63       20G+2        0.00000   0.00000  -0.00000   0.00000   0.00002
  64       20G-2        0.00000   0.00000   0.00000  -0.00000  -0.00000
  65       20G+3       -0.00000   0.00000  -0.00000   0.00000   0.00000
  66       20G-3        0.00000  -0.00000  -0.00000   0.00000   0.00001
  67       20G+4        0.00000  -0.00000  -0.00000  -0.00000  -0.00002
  68       20G-4        0.00000  -0.00000   0.00000  -0.00000   0.00000
  69 2   O  1S          0.93800   0.22981   0.11984   0.02094  -0.00004
  70        2S         -0.00675  -0.00170  -0.00090  -0.00020   0.00020
  71        3S          0.04912   0.01204   0.00626   0.00109  -0.00007
  72        4S          0.00662   0.00140   0.00152   0.00049   0.00054
  73        5PX        -0.00042  -0.00011  -0.00004  -0.00001   0.00001
  74        5PY        -0.00025  -0.00006  -0.00005   0.00000   0.00000
  75        5PZ        -0.00047  -0.00011  -0.00006  -0.00002   0.00001
  76        6PX        -0.00104  -0.00021  -0.00026  -0.00001   0.00002
  77        6PY        -0.00064  -0.00020   0.00005  -0.00008   0.00001
  78        6PZ        -0.00124  -0.00031  -0.00017  -0.00002   0.00004
  79        7PX        -0.00112  -0.00012  -0.00041   0.00014  -0.00044
  80        7PY        -0.00061  -0.00035   0.00036  -0.00008  -0.00026
  81        7PZ        -0.00128  -0.00026  -0.00009  -0.00003  -0.00054
  82        8D 0       -0.00007  -0.00002  -0.00001  -0.00000  -0.00004
  83        8D+1        0.00010   0.00003   0.00000  -0.00001  -0.00007
  84        8D-1        0.00009   0.00002   0.00001  -0.00001  -0.00004
  85        8D+2       -0.00003  -0.00001  -0.00001   0.00001  -0.00002
  86        8D-2       -0.00011  -0.00002  -0.00001  -0.00001  -0.00005
  87        9D 0       -0.00039  -0.00009  -0.00004  -0.00001   0.00026
  88        9D+1        0.00013   0.00000   0.00013   0.00002   0.00051
  89        9D-1        0.00018   0.00009  -0.00003   0.00006   0.00029
  90        9D+2       -0.00021  -0.00008   0.00009  -0.00007   0.00016
  91        9D-2       -0.00066  -0.00014  -0.00014   0.00001   0.00033
  92       10F 0        0.00019   0.00004   0.00003   0.00001  -0.00001
  93       10F+1        0.00006   0.00001   0.00001   0.00000   0.00007
  94       10F-1       -0.00001  -0.00000  -0.00000   0.00000   0.00004
  95       10F+2        0.00009   0.00003  -0.00000   0.00001   0.00004
  96       10F-2        0.00018   0.00004   0.00003   0.00001   0.00007
  97       10F+3       -0.00006  -0.00002  -0.00000  -0.00000   0.00000
  98       10F-3        0.00026   0.00006   0.00004   0.00001   0.00002
  99 3   H  1S          0.00025   0.00006   0.00003  -0.00001   0.00005
 100        2S         -0.00375  -0.00105  -0.00015  -0.00030  -0.00049
 101        3S         -0.00031  -0.00005  -0.00007  -0.00005   0.00004
 102        4PX         0.00000  -0.00000  -0.00001   0.00001   0.00006
 103        4PY        -0.00046  -0.00013  -0.00003  -0.00003  -0.00000
 104        4PZ        -0.00029  -0.00008  -0.00002  -0.00002   0.00005
 105        5PX         0.00020   0.00005   0.00005  -0.00000   0.00021
 106        5PY        -0.00179  -0.00046  -0.00015  -0.00014  -0.00024
 107        5PZ        -0.00097  -0.00026  -0.00006  -0.00007   0.00003
 108        6D 0        0.00015   0.00004   0.00002   0.00000   0.00007
 109        6D+1        0.00011   0.00003   0.00001   0.00001   0.00002
 110        6D-1       -0.00093  -0.00023  -0.00010  -0.00003   0.00003
 111        6D+2        0.00083   0.00021   0.00009   0.00003   0.00003
 112        6D-2        0.00009   0.00002   0.00001   0.00001   0.00012
 113 4   O  1S         -0.01449  -0.01661  -0.02481   0.97281  -0.00004
 114        2S          0.00007   0.00010   0.00012  -0.00702   0.00020
 115        3S         -0.00076  -0.00088  -0.00130   0.05095  -0.00007
 116        4S          0.00004   0.00065  -0.00004   0.00693   0.00054
 117        5PX         0.00000   0.00002   0.00001  -0.00042   0.00001
 118        5PY        -0.00001   0.00001  -0.00001   0.00027  -0.00000
 119        5PZ        -0.00000  -0.00000  -0.00001   0.00049  -0.00001
 120        6PX         0.00007  -0.00011   0.00002  -0.00107   0.00002
 121        6PY         0.00008  -0.00012  -0.00002   0.00068  -0.00001
 122        6PZ        -0.00003  -0.00001  -0.00003   0.00129  -0.00004
 123        7PX         0.00026  -0.00025   0.00008  -0.00113  -0.00043
 124        7PY         0.00017  -0.00045  -0.00002   0.00065   0.00027
 125        7PZ         0.00001  -0.00006  -0.00011   0.00131   0.00054
 126        8D 0        0.00000  -0.00000  -0.00000  -0.00007  -0.00004
 127        8D+1        0.00001   0.00001   0.00001  -0.00010   0.00007
 128        8D-1       -0.00001  -0.00000  -0.00001   0.00010  -0.00004
 129        8D+2        0.00001  -0.00001  -0.00000  -0.00003  -0.00002
 130        8D-2        0.00000  -0.00000  -0.00000   0.00012   0.00005
 131        9D 0        0.00001   0.00001   0.00002  -0.00040   0.00026
 132        9D+1        0.00002  -0.00012  -0.00002  -0.00014  -0.00051
 133        9D-1        0.00007  -0.00005   0.00002   0.00019   0.00030
 134        9D+2       -0.00009   0.00010   0.00002  -0.00018   0.00015
 135        9D-2       -0.00004   0.00003  -0.00002   0.00069  -0.00034
 136       10F 0        0.00000  -0.00000   0.00001  -0.00019   0.00001
 137       10F+1       -0.00000   0.00000   0.00000   0.00006   0.00007
 138       10F-1       -0.00000   0.00000  -0.00000   0.00001  -0.00005
 139       10F+2       -0.00001   0.00002   0.00000  -0.00008  -0.00003
 140       10F-2       -0.00000   0.00001  -0.00000   0.00019   0.00007
 141       10F+3       -0.00000   0.00000   0.00000  -0.00008  -0.00000
 142       10F-3        0.00001  -0.00000   0.00001  -0.00027  -0.00002
 143 5   H  1S         -0.00001  -0.00001  -0.00001   0.00026   0.00005
 144        2S         -0.00024   0.00035   0.00009  -0.00388  -0.00049
 145        3S         -0.00003  -0.00004   0.00002  -0.00032   0.00004
 146        4PX         0.00001  -0.00000  -0.00000   0.00001   0.00006
 147        4PY         0.00002  -0.00004  -0.00001   0.00048   0.00000
 148        4PZ         0.00001  -0.00002  -0.00001   0.00031  -0.00005
 149        5PX        -0.00001   0.00001   0.00000   0.00025   0.00022
 150        5PY         0.00009  -0.00008  -0.00005   0.00185   0.00023
 151        5PZ         0.00005  -0.00007  -0.00003   0.00100  -0.00003
 152        6D 0       -0.00000  -0.00000   0.00000   0.00015   0.00007
 153        6D+1       -0.00000   0.00000   0.00000  -0.00014  -0.00002
 154        6D-1       -0.00000   0.00003   0.00003  -0.00096   0.00003
 155        6D+2        0.00000  -0.00002  -0.00002   0.00085   0.00002
 156        6D-2       -0.00001   0.00000   0.00000  -0.00014  -0.00012
 157 6   O  1S         -0.25161   0.91678   0.20822   0.01721  -0.00004
 158        2S          0.00180  -0.00661  -0.00155  -0.00017   0.00020
 159        3S         -0.01319   0.04801   0.01090   0.00091  -0.00007
 160        4S         -0.00112   0.00660   0.00189   0.00008   0.00054
 161        5PX        -0.00012   0.00041   0.00009   0.00001  -0.00001
 162        5PY        -0.00012   0.00045   0.00011   0.00001  -0.00001
 163        5PZ         0.00005  -0.00026  -0.00005  -0.00000   0.00000
 164        6PX        -0.00015   0.00106   0.00023   0.00000  -0.00002
 165        6PY        -0.00032   0.00121   0.00027   0.00003  -0.00004
 166        6PZ         0.00030  -0.00058  -0.00019  -0.00003   0.00001
 167        7PX         0.00000   0.00120   0.00012  -0.00007   0.00044
 168        7PY        -0.00040   0.00121   0.00028  -0.00004   0.00054
 169        7PZ         0.00062  -0.00048  -0.00015  -0.00010  -0.00026
 170        8D 0       -0.00001   0.00006   0.00001   0.00000   0.00004
 171        8D+1       -0.00003   0.00011   0.00003  -0.00000   0.00005
 172        8D-1        0.00003  -0.00009  -0.00001   0.00000   0.00004
 173        8D+2       -0.00001   0.00004   0.00001   0.00000   0.00002
 174        8D-2       -0.00004   0.00010   0.00001  -0.00000  -0.00007
 175        9D 0       -0.00020   0.00031   0.00012   0.00000  -0.00026
 176        9D+1       -0.00012   0.00067   0.00013   0.00001  -0.00034
 177        9D-1        0.00011  -0.00016  -0.00009  -0.00004  -0.00029
 178        9D+2       -0.00001   0.00026   0.00003  -0.00000  -0.00014
 179        9D-2        0.00008   0.00015   0.00006   0.00000   0.00051
 180       10F 0        0.00005  -0.00019  -0.00005  -0.00000  -0.00005
 181       10F+1        0.00002  -0.00005  -0.00001  -0.00000   0.00002
 182       10F-1       -0.00006   0.00017   0.00005   0.00000   0.00002
 183       10F+2       -0.00004   0.00017   0.00004   0.00000  -0.00002
 184       10F-2       -0.00004   0.00018   0.00004   0.00000   0.00007
 185       10F+3       -0.00002   0.00008   0.00002   0.00000   0.00007
 186       10F-3       -0.00001   0.00010   0.00002  -0.00000  -0.00003
 187 7   H  1S         -0.00005   0.00025   0.00006  -0.00000   0.00005
 188        2S          0.00030  -0.00397  -0.00084   0.00006  -0.00050
 189        3S          0.00001  -0.00038  -0.00009   0.00007   0.00003
 190        4PX        -0.00009   0.00046   0.00010   0.00001  -0.00002
 191        4PY        -0.00006   0.00024   0.00005   0.00001  -0.00005
 192        4PZ        -0.00001   0.00019   0.00004   0.00000   0.00006
 193        5PX        -0.00017   0.00177   0.00040  -0.00005   0.00016
 194        5PY        -0.00005   0.00082   0.00016  -0.00002  -0.00007
 195        5PZ        -0.00013   0.00087   0.00019   0.00000   0.00028
 196        6D 0       -0.00009   0.00037   0.00008  -0.00000  -0.00008
 197        6D+1        0.00014  -0.00069  -0.00015  -0.00001  -0.00010
 198        6D-1        0.00008  -0.00038  -0.00008  -0.00000   0.00001
 199        6D+2        0.00013  -0.00058  -0.00014  -0.00000  -0.00003
 200        6D-2        0.00016  -0.00070  -0.00015  -0.00001   0.00005
 201 8   O  1S         -0.06404  -0.23210   0.94293   0.01912  -0.00004
 202        2S          0.00043   0.00162  -0.00682  -0.00016   0.00020
 203        3S         -0.00335  -0.01216   0.04938   0.00099  -0.00007
 204        4S         -0.00061  -0.00136   0.00674   0.00086   0.00054
 205        5PX        -0.00003  -0.00010   0.00041  -0.00000  -0.00001
 206        5PY         0.00004   0.00011  -0.00048  -0.00002   0.00001
 207        5PZ        -0.00002  -0.00007   0.00026   0.00002  -0.00000
 208        6PX        -0.00009  -0.00028   0.00102   0.00015  -0.00002
 209        6PY         0.00008   0.00031  -0.00126  -0.00004   0.00004
 210        6PZ        -0.00004  -0.00009   0.00067  -0.00012  -0.00001
 211        7PX        -0.00012  -0.00046   0.00104   0.00032   0.00043
 212        7PY         0.00015   0.00033  -0.00128   0.00003  -0.00055
 213        7PZ         0.00003  -0.00005   0.00066  -0.00045   0.00026
 214        8D 0        0.00000  -0.00002   0.00006   0.00001   0.00004
 215        8D+1        0.00001   0.00003  -0.00011  -0.00000  -0.00005
 216        8D-1        0.00001   0.00003  -0.00009  -0.00000   0.00004
 217        8D+2       -0.00000  -0.00001   0.00004   0.00000   0.00002
 218        8D-2        0.00001   0.00003  -0.00010   0.00001   0.00007
 219        9D 0       -0.00004  -0.00003   0.00037  -0.00010  -0.00026
 220        9D+1        0.00005   0.00019  -0.00066  -0.00007   0.00033
 221        9D-1       -0.00000  -0.00002  -0.00020   0.00005  -0.00030
 222        9D+2       -0.00001  -0.00009   0.00022   0.00006  -0.00016
 223        9D-2        0.00002   0.00002  -0.00014  -0.00012  -0.00051
 224       10F 0       -0.00001  -0.00005   0.00020   0.00001   0.00005
 225       10F+1        0.00000   0.00001  -0.00005   0.00000   0.00002
 226       10F-1        0.00001   0.00004  -0.00018   0.00001  -0.00002
 227       10F+2        0.00001   0.00004  -0.00017  -0.00001   0.00002
 228       10F-2       -0.00001  -0.00004   0.00019   0.00001   0.00007
 229       10F+3       -0.00000  -0.00002   0.00007   0.00001   0.00007
 230       10F-3        0.00001   0.00003  -0.00010  -0.00002   0.00003
 231 9   H  1S         -0.00002  -0.00007   0.00025  -0.00000   0.00005
 232        2S          0.00025   0.00069  -0.00383   0.00026  -0.00049
 233        3S          0.00005   0.00004  -0.00031  -0.00004   0.00004
 234        4PX         0.00001  -0.00001  -0.00001   0.00001  -0.00006
 235        4PY         0.00002   0.00006  -0.00030   0.00001   0.00005
 236        4PZ        -0.00003  -0.00010   0.00047  -0.00002   0.00000
 237        5PX         0.00001   0.00006  -0.00023  -0.00003  -0.00021
 238        5PY         0.00007   0.00019  -0.00099   0.00005   0.00004
 239        5PZ        -0.00014  -0.00035   0.00182  -0.00004   0.00024
 240        6D 0        0.00005   0.00018  -0.00079  -0.00000  -0.00006
 241        6D+1       -0.00001  -0.00002   0.00012  -0.00000   0.00012
 242        6D-1       -0.00007  -0.00022   0.00093  -0.00000  -0.00003
 243        6D+2       -0.00002  -0.00007   0.00028  -0.00000  -0.00005
 244        6D-2        0.00001   0.00003  -0.00013  -0.00000  -0.00002
 245 10  H  1S         -0.00007   0.00025   0.00004   0.00000   0.00005
 246        2S          0.00135  -0.00352  -0.00100  -0.00012  -0.00049
 247        3S          0.00005  -0.00029  -0.00012   0.00001   0.00004
 248        4PX         0.00001   0.00000  -0.00001   0.00000  -0.00006
 249        4PY        -0.00010   0.00028   0.00007   0.00001  -0.00005
 250        4PZ         0.00016  -0.00044  -0.00011  -0.00002  -0.00000
 251        5PX         0.00004  -0.00022  -0.00005  -0.00001  -0.00021
 252        5PY        -0.00033   0.00092   0.00025   0.00002  -0.00003
 253        5PZ         0.00056  -0.00170  -0.00048  -0.00004  -0.00024
 254        6D 0        0.00022  -0.00077  -0.00018  -0.00002  -0.00006
 255        6D+1        0.00003  -0.00010  -0.00003  -0.00000  -0.00012
 256        6D-1       -0.00027   0.00090   0.00022   0.00001  -0.00003
 257        6D+2       -0.00008   0.00028   0.00007   0.00000  -0.00005
 258        6D-2       -0.00003   0.00012   0.00003   0.00000   0.00002
 259 11  H  1S         -0.00002  -0.00007   0.00025   0.00002   0.00005
 260        2S          0.00038   0.00111  -0.00381  -0.00082  -0.00050
 261        3S          0.00010   0.00011  -0.00035  -0.00010   0.00003
 262        4PX        -0.00003  -0.00012   0.00046   0.00004  -0.00002
 263        4PY         0.00001   0.00006  -0.00025  -0.00001   0.00005
 264        4PZ         0.00001   0.00005  -0.00018  -0.00004  -0.00006
 265        5PX        -0.00020  -0.00047   0.00170   0.00033   0.00016
 266        5PY         0.00008   0.00025  -0.00081  -0.00018   0.00007
 267        5PZ         0.00007   0.00024  -0.00086  -0.00012  -0.00028
 268        6D 0       -0.00003  -0.00010   0.00038   0.00002  -0.00008
 269        6D+1       -0.00005  -0.00018   0.00069   0.00006   0.00010
 270        6D-1        0.00003   0.00011  -0.00040  -0.00003   0.00001
 271        6D+2        0.00005   0.00014  -0.00056  -0.00004  -0.00003
 272        6D-2       -0.00006  -0.00019   0.00072   0.00004  -0.00005
 273 12  H  1S         -0.00001   0.00001  -0.00001   0.00026   0.00005
 274        2S          0.00035  -0.00065   0.00009  -0.00400  -0.00050
 275        3S          0.00002  -0.00010   0.00007  -0.00038   0.00003
 276        4PX         0.00003  -0.00002   0.00000  -0.00048   0.00002
 277        4PY         0.00002  -0.00003   0.00000  -0.00018  -0.00006
 278        4PZ        -0.00001  -0.00000  -0.00000   0.00026  -0.00005
 279        5PX         0.00012  -0.00027   0.00007  -0.00180  -0.00016
 280        5PY         0.00006  -0.00008   0.00002  -0.00088  -0.00028
 281        5PZ        -0.00009   0.00014  -0.00003   0.00084  -0.00007
 282        6D 0       -0.00001   0.00001  -0.00001   0.00032   0.00007
 283        6D+1       -0.00003   0.00002  -0.00002   0.00075  -0.00005
 284        6D-1       -0.00002   0.00001  -0.00001   0.00040  -0.00001
 285        6D+2        0.00002  -0.00002   0.00002  -0.00065   0.00005
 286        6D-2        0.00003  -0.00003   0.00001  -0.00070  -0.00011
 287 13  H  1S          0.00025   0.00005   0.00004   0.00000   0.00005
 288        2S         -0.00384  -0.00063  -0.00119   0.00001  -0.00050
 289        3S         -0.00038   0.00001  -0.00012  -0.00001   0.00003
 290        4PX        -0.00046  -0.00011  -0.00009  -0.00000   0.00002
 291        4PY         0.00019   0.00004   0.00006  -0.00000   0.00005
 292        4PZ        -0.00025  -0.00006  -0.00004  -0.00000   0.00005
 293        5PX        -0.00172  -0.00027  -0.00049  -0.00002  -0.00015
 294        5PY         0.00088   0.00018   0.00021   0.00000   0.00028
 295        5PZ        -0.00080  -0.00012  -0.00026   0.00002   0.00007
 296        6D 0        0.00031   0.00007   0.00006   0.00001   0.00007
 297        6D+1       -0.00071  -0.00016  -0.00012  -0.00001   0.00005
 298        6D-1        0.00040   0.00009   0.00007   0.00000  -0.00001
 299        6D+2       -0.00060  -0.00013  -0.00010  -0.00001   0.00005
 300        6D-2        0.00070   0.00016   0.00013   0.00001   0.00010
                          11        12        13        14        15
                           O         O         O         O         O
     Eigenvalues --    -3.45574  -3.45574  -3.45560  -1.32485  -1.31995
   1 1   Zn 1S          0.00000  -0.00000   0.00000  -0.00443  -0.00000
   2        2S          0.00000   0.00000  -0.00000   0.01683   0.00001
   3        3S         -0.00000   0.00000   0.00000  -0.02160  -0.00002
   4        4S         -0.00000   0.00000  -0.00000   0.04822   0.00003
   5        5S         -0.00000  -0.00000   0.00000   0.00876   0.00001
   6        6S          0.00000  -0.00000   0.00000  -0.05418  -0.00004
   7        7S         -0.00000   0.00000  -0.00000   0.01454   0.00001
   8        8PX         0.00855   0.00211   0.37102   0.00001  -0.00958
   9        8PY         0.36725   0.05279  -0.00876  -0.00000  -0.00240
  10        8PZ        -0.05283   0.36735  -0.00087  -0.00001  -0.00127
  11        9PX        -0.01311  -0.00323  -0.56900  -0.00003   0.02892
  12        9PY        -0.56322  -0.08094   0.01344   0.00000   0.00733
  13        9PZ         0.08100  -0.56337   0.00134   0.00003   0.00378
  14       10PX         0.00016   0.00004   0.00707  -0.00001   0.01219
  15       10PY         0.00686   0.00105  -0.00016   0.00000   0.00372
  16       10PZ        -0.00105   0.00686  -0.00002   0.00002   0.00099
  17       11PX        -0.00132  -0.00033  -0.05730   0.00003  -0.03117
  18       11PY        -0.05664  -0.00819   0.00135  -0.00000  -0.00818
  19       11PZ         0.00820  -0.05665   0.00013  -0.00004  -0.00381
  20       12PX         0.01566   0.00386   0.67956   0.00002  -0.01907
  21       12PY         0.67265   0.09670  -0.01605  -0.00000  -0.00479
  22       12PZ        -0.09676   0.67283  -0.00159  -0.00002  -0.00253
  23       13PX        -0.00003  -0.00001  -0.00110   0.00000  -0.00282
  24       13PY        -0.00107  -0.00014   0.00003  -0.00000  -0.00079
  25       13PZ         0.00014  -0.00107   0.00000  -0.00000  -0.00037
  26       14D 0        0.00000   0.00000   0.00012  -0.00002   0.00739
  27       14D+1        0.00015   0.00016  -0.00000   0.00001   0.00410
  28       14D-1        0.00000  -0.00000   0.00018  -0.00001   0.01073
  29       14D+2       -0.00000   0.00000   0.00007   0.00003   0.00425
  30       14D-2       -0.00016   0.00015   0.00000   0.00001  -0.00089
  31       15D 0        0.00000  -0.00000   0.00002   0.00001  -0.00756
  32       15D+1        0.00013   0.00008  -0.00000  -0.00001  -0.00420
  33       15D-1        0.00000  -0.00000   0.00016   0.00001  -0.01107
  34       15D+2       -0.00000   0.00000   0.00001  -0.00000  -0.00435
  35       15D-2       -0.00008   0.00013   0.00000  -0.00001   0.00103
  36       16D 0        0.00000   0.00000   0.00022  -0.00003   0.00869
  37       16D+1        0.00029   0.00029  -0.00000   0.00001   0.00483
  38       16D-1        0.00000  -0.00000   0.00032  -0.00001   0.01264
  39       16D+2       -0.00000   0.00001   0.00013   0.00003   0.00500
  40       16D-2       -0.00029   0.00029   0.00000   0.00001  -0.00107
  41       17D 0        0.00000  -0.00000   0.00010  -0.00006   0.00167
  42       17D+1        0.00024   0.00026  -0.00000   0.00000   0.00109
  43       17D-1        0.00000  -0.00000   0.00033  -0.00000   0.00278
  44       17D+2       -0.00000   0.00001   0.00006   0.00009   0.00097
  45       17D-2       -0.00026   0.00024   0.00000   0.00000   0.00016
  46       18F 0       -0.00002  -0.00001  -0.00000   0.00000  -0.00000
  47       18F+1        0.00000  -0.00000  -0.00002  -0.00002  -0.00001
  48       18F-1        0.00002  -0.00002   0.00000   0.00000  -0.00000
  49       18F+2       -0.00001  -0.00002   0.00000  -0.00000  -0.00000
  50       18F-2        0.00000   0.00000  -0.00000  -0.00003   0.00000
  51       18F+3        0.00000  -0.00000   0.00002  -0.00001   0.00001
  52       18F-3       -0.00000  -0.00001  -0.00000   0.00000  -0.00000
  53       19F 0       -0.00004   0.00002   0.00000   0.00000  -0.00009
  54       19F+1       -0.00000  -0.00000  -0.00004  -0.00115  -0.00073
  55       19F-1        0.00001  -0.00004   0.00000   0.00001  -0.00012
  56       19F+2       -0.00002  -0.00002   0.00000  -0.00004  -0.00022
  57       19F-2        0.00000   0.00000   0.00000  -0.00179   0.00000
  58       19F+3       -0.00000  -0.00000   0.00005  -0.00089   0.00093
  59       19F-3       -0.00003  -0.00001  -0.00000   0.00003  -0.00025
  60       20G 0       -0.00000   0.00000  -0.00002  -0.00003  -0.00002
  61       20G+1       -0.00002   0.00003  -0.00000   0.00000  -0.00000
  62       20G-1       -0.00000  -0.00000  -0.00002   0.00004  -0.00002
  63       20G+2        0.00000   0.00000   0.00002   0.00002   0.00002
  64       20G-2        0.00002   0.00005  -0.00000  -0.00000   0.00001
  65       20G+3       -0.00005   0.00001   0.00000   0.00000  -0.00001
  66       20G-3        0.00000   0.00000   0.00004   0.00002   0.00005
  67       20G+4        0.00000  -0.00000   0.00003  -0.00004   0.00003
  68       20G-4        0.00003   0.00000  -0.00000   0.00000   0.00001
  69 2   O  1S         -0.00013  -0.00041  -0.00030  -0.10470  -0.13447
  70        2S          0.00018   0.00053   0.00038   0.23656   0.30548
  71        3S          0.00002   0.00008   0.00006   0.07223   0.09318
  72        4S          0.00075   0.00184   0.00149   0.14909   0.18476
  73        5PX         0.00008   0.00025   0.00012  -0.01292  -0.01810
  74        5PY        -0.00002   0.00014   0.00011  -0.00796  -0.01101
  75        5PZ         0.00011   0.00026   0.00024  -0.01487  -0.02051
  76        6PX         0.00008   0.00026   0.00014  -0.01455  -0.01974
  77        6PY        -0.00000   0.00014   0.00012  -0.00920  -0.01205
  78        6PZ         0.00010   0.00029   0.00023  -0.01672  -0.02235
  79        7PX         0.00001  -0.00023  -0.00080   0.00267   0.00190
  80        7PY        -0.00073  -0.00029   0.00010   0.00151   0.00277
  81        7PZ        -0.00012  -0.00075  -0.00025   0.00362   0.00636
  82        8D 0       -0.00001  -0.00002  -0.00001  -0.00049  -0.00059
  83        8D+1       -0.00000  -0.00002  -0.00002   0.00050   0.00078
  84        8D-1       -0.00001  -0.00001  -0.00000   0.00048   0.00070
  85        8D+2        0.00000  -0.00001  -0.00001  -0.00025  -0.00029
  86        8D-2       -0.00002  -0.00002  -0.00002  -0.00082  -0.00097
  87        9D 0        0.00015   0.00027   0.00026   0.00004  -0.00019
  88        9D+1        0.00020   0.00061   0.00046   0.00523   0.00577
  89        9D-1        0.00013   0.00036   0.00025   0.00374   0.00414
  90        9D+2        0.00005   0.00021   0.00014   0.00015   0.00010
  91        9D-2        0.00012   0.00043   0.00028  -0.00061  -0.00136
  92       10F 0        0.00001  -0.00003   0.00001   0.00082   0.00101
  93       10F+1        0.00006   0.00011   0.00009   0.00029   0.00034
  94       10F-1        0.00001   0.00006   0.00007  -0.00005  -0.00005
  95       10F+2        0.00005   0.00007   0.00002   0.00040   0.00045
  96       10F-2        0.00001   0.00012   0.00009   0.00077   0.00092
  97       10F+3        0.00002   0.00000  -0.00002  -0.00024  -0.00028
  98       10F-3        0.00001   0.00006   0.00003   0.00111   0.00137
  99 3   H  1S          0.00002   0.00002   0.00000   0.04342   0.05635
 100        2S         -0.00058  -0.00065  -0.00021   0.03403   0.04795
 101        3S         -0.00022  -0.00025  -0.00009   0.00145   0.00278
 102        4PX         0.00001   0.00004   0.00002  -0.00072  -0.00103
 103        4PY        -0.00001  -0.00001  -0.00002   0.00601   0.00788
 104        4PZ         0.00002   0.00001   0.00002   0.00324   0.00432
 105        5PX         0.00019   0.00035   0.00031  -0.00121  -0.00231
 106        5PY        -0.00017  -0.00030  -0.00011   0.00499   0.00829
 107        5PZ        -0.00002   0.00020   0.00010   0.00216   0.00257
 108        6D 0        0.00005   0.00009   0.00006  -0.00012  -0.00037
 109        6D+1        0.00004   0.00007   0.00004  -0.00010  -0.00029
 110        6D-1        0.00002   0.00006   0.00004   0.00114   0.00150
 111        6D+2        0.00002   0.00004   0.00001  -0.00095  -0.00144
 112        6D-2        0.00006   0.00014   0.00009  -0.00002  -0.00027
 113 4   O  1S          0.00012   0.00041  -0.00031  -0.10440  -0.06743
 114        2S         -0.00017  -0.00052   0.00039   0.23588   0.15314
 115        3S         -0.00002  -0.00008   0.00006   0.07202   0.04671
 116        4S         -0.00071  -0.00183   0.00152   0.14867   0.09330
 117        5PX        -0.00008  -0.00025   0.00012  -0.01265  -0.00912
 118        5PY        -0.00002   0.00015  -0.00012   0.00818   0.00552
 119        5PZ         0.00011   0.00026  -0.00024   0.01489   0.01023
 120        6PX        -0.00008  -0.00025   0.00014  -0.01425  -0.01005
 121        6PY        -0.00000   0.00014  -0.00012   0.00945   0.00592
 122        6PZ         0.00009   0.00029  -0.00023   0.01674   0.01123
 123        7PX        -0.00004   0.00022  -0.00080   0.00263  -0.00128
 124        7PY        -0.00073  -0.00030  -0.00006  -0.00157  -0.00380
 125        7PZ        -0.00012  -0.00075   0.00026  -0.00360  -0.00387
 126        8D 0        0.00000   0.00002  -0.00001  -0.00048  -0.00029
 127        8D+1       -0.00000  -0.00002   0.00002  -0.00048  -0.00037
 128        8D-1        0.00001   0.00001  -0.00000   0.00049   0.00038
 129        8D+2       -0.00000   0.00001  -0.00001  -0.00021  -0.00014
 130        8D-2       -0.00002  -0.00002   0.00002   0.00083   0.00049
 131        9D 0       -0.00014  -0.00027   0.00027   0.00007  -0.00004
 132        9D+1        0.00018   0.00059  -0.00046  -0.00513  -0.00295
 133        9D-1       -0.00012  -0.00037   0.00026   0.00385   0.00200
 134        9D+2       -0.00004  -0.00019   0.00012   0.00017   0.00031
 135        9D-2        0.00012   0.00044  -0.00029   0.00062   0.00080
 136       10F 0        0.00001  -0.00003  -0.00001  -0.00082  -0.00052
 137       10F+1       -0.00005  -0.00011   0.00009   0.00029   0.00017
 138       10F-1        0.00001   0.00006  -0.00007   0.00004   0.00001
 139       10F+2        0.00005   0.00007  -0.00002  -0.00036  -0.00017
 140       10F-2       -0.00001  -0.00012   0.00009   0.00078   0.00049
 141       10F+3       -0.00002   0.00000  -0.00002  -0.00031  -0.00018
 142       10F-3        0.00001   0.00006  -0.00003  -0.00108  -0.00070
 143 5   H  1S         -0.00002  -0.00002   0.00000   0.04329   0.02813
 144        2S          0.00057   0.00065  -0.00023   0.03393   0.02559
 145        3S          0.00021   0.00025  -0.00009   0.00144   0.00173
 146        4PX        -0.00001  -0.00004   0.00002  -0.00086  -0.00062
 147        4PY        -0.00001  -0.00001   0.00002  -0.00597  -0.00394
 148        4PZ         0.00001   0.00001  -0.00002  -0.00324  -0.00223
 149        5PX        -0.00019  -0.00035   0.00032  -0.00132  -0.00119
 150        5PY        -0.00016  -0.00029   0.00011  -0.00494  -0.00455
 151        5PZ        -0.00003   0.00020  -0.00010  -0.00216  -0.00132
 152        6D 0       -0.00004  -0.00009   0.00006  -0.00012  -0.00020
[...]
 284         V                12.095360         33.657093
 285         V                14.773949         27.827717
 286         V                14.774439         27.828698
 287         V                14.774449         27.828706
 288         V                14.831595         27.870316
 289         V                14.833046         27.872644
 290         V                14.833051         27.872645
 291         V                14.912766         27.934402
 292         V                15.386676         22.629805
 293         V                15.387068         22.629982
 294         V                15.387933         22.630317
 295         V                15.387941         22.630312
 296         V                15.388466         22.630390
 297         V                15.391162         22.645137
 298         V                15.392834         22.642370
 299         V                15.392848         22.642365
 300         V                15.393559         22.642556
 Total kinetic energy from orbitals= 2.080601159331D+03
 Calling FoFJK, ICntrl=      2527 FMM=F ISym2X=0 I1Cent= 4 IOpClX= 0 NMat=1 NMatS=1 NMatT=0.
 ***** Axes restored to original set *****
 -------------------------------------------------------------------
 Center     Atomic                   Forces (Hartrees/Bohr)
 Number     Number              X              Y              Z
 -------------------------------------------------------------------
      1       30          -0.000000000   -0.000000000   -0.000000000
      2        8          -0.000000000   -0.000000000   -0.000000000
      3        1          -0.000001745    0.000002732    0.000005161
      4        8          -0.000000000   -0.000000000   -0.000000000
      5        1           0.000004096   -0.000003098   -0.000003132
      6        8          -0.000000000   -0.000000000   -0.000000000
      7        1          -0.000009463    0.000008200    0.000006664
      8        8          -0.000000000   -0.000000000   -0.000000000
      9        1          -0.000000040   -0.000002358   -0.000002291
     10        1          -0.000001096    0.000008185    0.000007495
     11        1          -0.000007607   -0.000011711   -0.000012781
     12        1           0.000001843    0.000009146   -0.000001573
     13        1           0.000001138   -0.000004981    0.000003373
 -------------------------------------------------------------------
 Cartesian Forces:  Max     0.000012781 RMS     0.000004791

 GradGradGradGradGradGradGradGradGradGradGradGradGradGradGradGradGradGrad
 Berny optimization.
 FormGI is forming the generalized inverse of G from B-inverse, IUseBI=4.
 Internal  Forces:  Max     0.000021581 RMS     0.000006960
 Search for a local minimum.
 Step number   1 out of a maximum of   69
 All quantities printed in internal units (Hartrees-Bohrs-Radians)
 Mixed Optimization -- En-DIIS/RFO-DIIS
 Second derivative matrix not updated -- first step.
 ITU=  0
     Eigenvalues ---    0.03282   0.03282   0.03282   0.03282   0.03286
     Eigenvalues ---    0.03286   0.03286   0.03286   0.16000   0.16000
     Eigenvalues ---    0.16000   0.16000   0.16000   0.16000   0.16000
     Eigenvalues ---    0.16000   0.51639   0.51639   0.51640   0.51641
     Eigenvalues ---    0.51654   0.51654   0.51656   0.516561000.00000
     Eigenvalues --- 1000.000001000.000001000.000001000.000001000.00000
     Eigenvalues --- 1000.000001000.000001000.000001000.000001000.00000
     Eigenvalues --- 1000.000001000.000001000.000001000.000001000.00000
     Eigenvalues --- 1000.000001000.000001000.000001000.000001000.00000
     Eigenvalues --- 1000.000001000.000001000.000001000.000001000.00000
     Eigenvalues --- 1000.000001000.000001000.000001000.000001000.00000
     Eigenvalues --- 1000.000001000.000001000.000001000.00000
 RFO step:  Lambda= 0.00000000D+00 EMin= 3.28193992D-02
 Linear search not attempted -- first point.
 Iteration  1 RMS(Cart)=  0.00004907 RMS(Int)=  0.00000000
 Iteration  2 RMS(Cart)=  0.00000000 RMS(Int)=  0.00000000
 Variable       Old X    -DE/DX   Delta X   Delta X   Delta X     New X
                                 (Linear)    (Quad)   (Total)
    X1       -0.00000  -0.00000   0.00000   0.00000   0.00000  -0.00000
    Y1        0.00002   0.00000   0.00000   0.00000   0.00000   0.00002
    Z1        0.00002   0.00000   0.00000   0.00000   0.00000   0.00002
    X2        2.09992  -0.00000   0.00000   0.00000   0.00000   2.09992
    Y2       -1.25343  -0.00000   0.00000   0.00000  -0.00000  -1.25343
    Z2        2.65460   0.00001   0.00000   0.00000   0.00000   2.65460
    X4        2.06759   0.00001   0.00000   0.00000   0.00000   2.06759
    Y4        1.29738   0.00001   0.00000   0.00000   0.00000   1.29738
    Z4       -2.65884  -0.00000   0.00000   0.00000   0.00000  -2.65884
    X6       -2.11043  -0.00001   0.00000   0.00000  -0.00000  -2.11043
    Y6        2.63466   0.00002   0.00000   0.00000  -0.00000   2.63466
    Z6        1.27767   0.00002   0.00000   0.00000   0.00000   1.27767
    X8       -2.05709  -0.00000   0.00000   0.00000  -0.00000  -2.05709
    Y8       -2.67851  -0.00001   0.00000   0.00000   0.00000  -2.67851
    Z8       -1.27333  -0.00002   0.00000   0.00000   0.00000  -1.27333
    R1        1.84947   0.00000   0.00000   0.00000   0.00000   1.84947
    R2        1.84932   0.00000   0.00000   0.00000   0.00000   1.84932
    R3        1.84947  -0.00000   0.00000  -0.00000  -0.00000   1.84947
    R4        1.84932  -0.00000   0.00000  -0.00000  -0.00000   1.84932
    R5        1.84930   0.00001   0.00000   0.00002   0.00002   1.84931
    R6        1.84944   0.00001   0.00000   0.00002   0.00002   1.84946
    R7        1.84946   0.00000   0.00000   0.00001   0.00001   1.84946
    R8        1.84931   0.00001   0.00000   0.00001   0.00001   1.84932
    A1        2.20117  -0.00000   0.00000  -0.00001  -0.00001   2.20116
    A2        2.21734   0.00001   0.00000   0.00004   0.00004   2.21738
    A3        1.86364  -0.00001   0.00000  -0.00003  -0.00003   1.86361
    A4        2.20134   0.00000   0.00000   0.00001   0.00001   2.20136
    A5        2.21720   0.00001   0.00000   0.00004   0.00004   2.21724
    A6        1.86369  -0.00001   0.00000  -0.00005  -0.00005   1.86363
    A7        2.21724   0.00001   0.00000   0.00007   0.00007   2.21731
    A8        2.20127  -0.00000   0.00000  -0.00001  -0.00001   2.20126
    A9        1.86369  -0.00001   0.00000  -0.00006  -0.00006   1.86363
   A10        2.20160  -0.00001   0.00000  -0.00006  -0.00006   2.20154
   A11        2.21688   0.00002   0.00000   0.00013   0.00013   2.21701
   A12        1.86373  -0.00001   0.00000  -0.00007  -0.00007   1.86365
    D1       -2.33167  -0.00000   0.00000  -0.00009  -0.00009  -2.33176
    D2        0.75450   0.00000   0.00000  -0.00001  -0.00001   0.75449
    D3        1.85712  -0.00000   0.00000  -0.00009  -0.00009   1.85703
    D4       -1.33990   0.00000   0.00000  -0.00001  -0.00001  -1.33991
    D5       -0.23728  -0.00001   0.00000  -0.00009  -0.00009  -0.23736
    D6        2.84889  -0.00000   0.00000  -0.00001  -0.00001   2.84888
    D7       -2.33506   0.00000   0.00000  -0.00002  -0.00002  -2.33508
    D8        0.75321  -0.00000   0.00000  -0.00006  -0.00006   0.75314
    D9       -0.24066  -0.00000   0.00000  -0.00002  -0.00002  -0.24068
   D10        2.84760  -0.00000   0.00000  -0.00006  -0.00006   2.84754
   D11        1.85374   0.00000   0.00000  -0.00002  -0.00002   1.85372
   D12       -1.34119  -0.00000   0.00000  -0.00006  -0.00006  -1.34125
   D13       -2.84949   0.00000   0.00000   0.00004   0.00004  -2.84945
   D14        0.23807   0.00000   0.00000   0.00003   0.00003   0.23810
   D15        1.33930   0.00000   0.00000   0.00004   0.00004   1.33934
   D16       -1.85633   0.00000   0.00000   0.00003   0.00003  -1.85630
   D17       -0.75509   0.00000   0.00000   0.00004   0.00004  -0.75505
   D18        2.33246   0.00000   0.00000   0.00003   0.00003   2.33249
   D19       -1.85330  -0.00000   0.00000   0.00001   0.00001  -1.85329
   D20        1.34231   0.00000   0.00000   0.00004   0.00004   1.34235
   D21        0.24109   0.00000   0.00000   0.00001   0.00001   0.24111
   D22       -2.84648   0.00000   0.00000   0.00004   0.00004  -2.84644
   D23        2.33549   0.00000   0.00000   0.00001   0.00001   2.33550
   D24       -0.75208   0.00000   0.00000   0.00004   0.00004  -0.75204
         Item               Value     Threshold  Converged?
 Maximum Force            0.000022     0.000450     YES
 RMS     Force            0.000006     0.000300     YES
 Maximum Displacement     0.000212     0.001800     YES
 RMS     Displacement     0.000049     0.001200     YES
 Predicted change in Energy=-4.484778D-09
 Optimization completed.
    -- Stationary point found.
                           ----------------------------
                           !   Optimized Parameters   !
                           ! (Angstroms and Degrees)  !
 --------------------------                            --------------------------
 ! Name  Definition              Value          Derivative Info.                !
 --------------------------------------------------------------------------------
 ! X1    R(1,-1)                 0.0            -DE/DX =    0.0                 !
 ! Y1    R(1,-2)                 0.0            -DE/DX =    0.0                 !
 ! Z1    R(1,-3)                 0.0            -DE/DX =    0.0                 !
 ! X2    R(2,-1)                 1.1112         -DE/DX =    0.0                 !
 ! Y2    R(2,-2)                -0.6633         -DE/DX =    0.0                 !
 ! Z2    R(2,-3)                 1.4048         -DE/DX =    0.0                 !
 ! X4    R(4,-1)                 1.0941         -DE/DX =    0.0                 !
 ! Y4    R(4,-2)                 0.6865         -DE/DX =    0.0                 !
 ! Z4    R(4,-3)                -1.407          -DE/DX =    0.0                 !
 ! X6    R(6,-1)                -1.1168         -DE/DX =    0.0                 !
 ! Y6    R(6,-2)                 1.3942         -DE/DX =    0.0                 !
 ! Z6    R(6,-3)                 0.6761         -DE/DX =    0.0                 !
 ! X8    R(8,-1)                -1.0886         -DE/DX =    0.0                 !
 ! Y8    R(8,-2)                -1.4174         -DE/DX =    0.0                 !
 ! Z8    R(8,-3)                -0.6738         -DE/DX =    0.0                 !
 ! R1    R(2,3)                  0.9787         -DE/DX =    0.0                 !
 ! R2    R(2,13)                 0.9786         -DE/DX =    0.0                 !
 ! R3    R(4,5)                  0.9787         -DE/DX =    0.0                 !
 ! R4    R(4,12)                 0.9786         -DE/DX =    0.0                 !
 ! R5    R(6,7)                  0.9786         -DE/DX =    0.0                 !
 ! R6    R(6,10)                 0.9787         -DE/DX =    0.0                 !
 ! R7    R(8,9)                  0.9787         -DE/DX =    0.0                 !
 ! R8    R(8,11)                 0.9786         -DE/DX =    0.0                 !
 ! A1    A(1,2,3)              126.1176         -DE/DX =    0.0                 !
 ! A2    A(1,2,13)             127.0443         -DE/DX =    0.0                 !
 ! A3    A(3,2,13)             106.7788         -DE/DX =    0.0                 !
 ! A4    A(1,4,5)              126.1277         -DE/DX =    0.0                 !
 ! A5    A(1,4,12)             127.036          -DE/DX =    0.0                 !
 ! A6    A(5,4,12)             106.7814         -DE/DX =    0.0                 !
 ! A7    A(1,6,7)              127.0386         -DE/DX =    0.0                 !
 ! A8    A(1,6,10)             126.1237         -DE/DX =    0.0                 !
 ! A9    A(7,6,10)             106.7814         -DE/DX =    0.0                 !
 ! A10   A(1,8,9)              126.1423         -DE/DX =    0.0                 !
 ! A11   A(1,8,11)             127.0177         -DE/DX =    0.0                 !
 ! A12   A(9,8,11)             106.7838         -DE/DX =    0.0                 !
 ! D1    D(4,1,2,3)           -133.5949         -DE/DX =    0.0                 !
 ! D2    D(4,1,2,13)            43.2295         -DE/DX =    0.0                 !
 ! D3    D(6,1,2,3)            106.4051         -DE/DX =    0.0                 !
 ! D4    D(6,1,2,13)           -76.7705         -DE/DX =    0.0                 !
 ! D5    D(8,1,2,3)            -13.5949         -DE/DX =    0.0                 !
 ! D6    D(8,1,2,13)           163.2295         -DE/DX =    0.0                 !
 ! D7    D(2,1,4,5)           -133.7888         -DE/DX =    0.0                 !
 ! D8    D(2,1,4,12)            43.1556         -DE/DX =    0.0                 !
 ! D9    D(6,1,4,5)            -13.7888         -DE/DX =    0.0                 !
 ! D10   D(6,1,4,12)           163.1556         -DE/DX =    0.0                 !
 ! D11   D(8,1,4,5)            106.2112         -DE/DX =    0.0                 !
 ! D12   D(8,1,4,12)           -76.8444         -DE/DX =    0.0                 !
 ! D13   D(2,1,6,7)           -163.2636         -DE/DX =    0.0                 !
 ! D14   D(2,1,6,10)            13.6403         -DE/DX =    0.0                 !
 ! D15   D(4,1,6,7)             76.7364         -DE/DX =    0.0                 !
 ! D16   D(4,1,6,10)          -106.3597         -DE/DX =    0.0                 !
 ! D17   D(8,1,6,7)            -43.2636         -DE/DX =    0.0                 !
 ! D18   D(8,1,6,10)           133.6403         -DE/DX =    0.0                 !
 ! D19   D(2,1,8,9)           -106.1864         -DE/DX =    0.0                 !
 ! D20   D(2,1,8,11)            76.9089         -DE/DX =    0.0                 !
 ! D21   D(4,1,8,9)             13.8136         -DE/DX =    0.0                 !
 ! D22   D(4,1,8,11)          -163.0911         -DE/DX =    0.0                 !
 ! D23   D(6,1,8,9)            133.8136         -DE/DX =    0.0                 !
 ! D24   D(6,1,8,11)           -43.0911         -DE/DX =    0.0                 !
 --------------------------------------------------------------------------------
 GradGradGradGradGradGradGradGradGradGradGradGradGradGradGradGradGradGrad

                          Input orientation:                          
 ---------------------------------------------------------------------
 Center     Atomic      Atomic             Coordinates (Angstroms)
 Number     Number       Type             X           Y           Z
 ---------------------------------------------------------------------
      1         30           0       -0.000002    0.000012    0.000013
      2          8           0        1.111232   -0.663287    1.404753
      3          1           0        1.008674   -1.520677    1.865418
      4          8           0        1.094120    0.686542   -1.406997
      5          1           0        0.971146    1.540339   -1.869335
      6          8           0       -1.116794    1.394201    0.676114
      7          1           0       -1.925855    1.755226    0.260482
      8          8           0       -1.088565   -1.417409   -0.673819
      9          1           0       -0.971075   -1.879021   -1.528773
     10          1           0       -1.008433    1.856394    1.531951
     11          1           0       -1.890286   -1.793595   -0.257398
     12          1           0        1.903689    0.279263   -1.776338
     13          1           0        1.912248   -0.238661    1.773206
 ---------------------------------------------------------------------
                    Distance matrix (angstroms):
                    1          2          3          4          5
     1  Zn   0.000000
     2  O    1.910000   0.000000
     3  H    2.609532   0.978697   0.000000
     4  O    1.910000   3.119017   3.948141   0.000000
     5  H    2.609635   3.949081   4.829038   0.978697   0.000000
     6  O    1.910000   3.119017   3.798496   3.119017   3.295475
     7  H    2.618689   4.047525   4.681754   3.611484   3.602070
     8  O    1.910000   3.119017   3.294966   3.119018   3.797359
     9  H    2.609777   3.797313   3.945675   3.295751   3.947180
    10  H    2.609583   3.295140   3.947724   3.798249   3.948084
    11  H    2.618485   3.612403   3.603443   4.047139   4.679877
    12  H    2.618672   3.411118   4.159715   0.978617   1.571177
    13  H    2.618755   0.978617   1.571151   3.411601   4.161564
                    6          7          8          9         10
     6  O    0.000000
     7  H    0.978606   0.000000
     8  O    3.119017   3.411684   0.000000
     9  H    3.949271   4.161825   0.978691   0.000000
    10  H    0.978684   1.571157   3.948371   4.829364   0.000000
    11  H    3.410540   3.586586   0.978611   1.571191   4.159550
    12  H    4.047335   4.581758   3.612178   3.603297   4.681087
    13  H    3.611778   4.582025   4.047499   4.680534   3.602476
                   11         12         13
    11  H    0.000000
    12  H    4.582376   0.000000
    13  H    4.582623   3.587141   0.000000
 Stoichiometry    H8O4Zn(2+)
 Framework group  C1[X(H8O4Zn)]
 Deg. of freedom    33
 Full point group                 C1      NOp   1
 Largest Abelian subgroup         C1      NOp   1
 Largest concise Abelian subgroup C1      NOp   1
                         Standard orientation:                         
 ---------------------------------------------------------------------
 Center     Atomic      Atomic             Coordinates (Angstroms)
 Number     Number       Type             X           Y           Z
 ---------------------------------------------------------------------
      1         30           0        0.000002    0.000012   -0.000013
      2          8           0       -1.111232   -0.663287   -1.404753
      3          1           0       -1.008674   -1.520677   -1.865418
      4          8           0       -1.094120    0.686542    1.406997
      5          1           0       -0.971146    1.540339    1.869335
      6          8           0        1.116794    1.394201   -0.676114
      7          1           0        1.925855    1.755226   -0.260482
      8          8           0        1.088565   -1.417409    0.673819
      9          1           0        0.971075   -1.879021    1.528773
     10          1           0        1.008433    1.856394   -1.531951
     11          1           0        1.890286   -1.793595    0.257398
     12          1           0       -1.903689    0.279263    1.776338
     13          1           0       -1.912248   -0.238661   -1.773206
 ---------------------------------------------------------------------
 Rotational constants (GHZ):      2.6311862      2.6258331      2.6257937
 1\1\GINC-HECTOR-MACBOOKAIR\FOpt\RPBEPBE\CC-pVTZ/def2TZV\H8O4Zn1(2+)\HE
 CTOR\08-Aug-2024\0\\# opt pbepbe/cc-pvtz/def2tzv pop=full geom=connect
 ivity output=wfx\\Zn2_tetraedrico_cc-pvtz-def2-tzv_1\\2,1\Zn,-0.000001
 78,0.00001185,0.00001262\O,1.11123183,-0.6632871,1.40475277\H,1.008673
 71,-1.52067735,1.86541799\O,1.09411977,0.6865422,-1.4069965\H,0.971145
 78,1.54033868,-1.86933453\O,-1.11679353,1.39420114,0.67611394\H,-1.925
 85516,1.75522603,0.26048159\O,-1.08856477,-1.41740905,-0.67381909\H,-0
 .97107508,-1.87902124,-1.52877303\H,-1.00843268,1.85639381,1.53195145\
 H,-1.89028608,-1.79359512,-0.25739845\H,1.90368887,0.27926339,-1.77633
 813\H,1.91224767,-0.23866117,1.77320557\\Version=EM64L-G09RevE.01\Stat
 e=1-A\HF=-2085.0539002\RMSD=4.163e-09\RMSF=4.791e-06\Dipole=0.0000735,
 -0.0005237,-0.0005597\Quadrupole=0.4285814,-0.2119005,-0.2166809,-0.00
 11086,0.0005529,0.0007726\PG=C01 [X(H8O4Zn1)]\\@

 Writing a WFNX file to "Zn2_tetraedrico_cc-pvtz-def2-tzv_1.wfx"


 IF I HAVE SEEN FARTHER, IT IS BY STANDING ON THE
 SHOULDERS OF GIANTS. -- SIR ISAAC NEWTON
 Job cpu time:       0 days  0 hours  1 minutes 30.2 seconds.
 File lengths (MBytes):  RWF=     49 Int=      0 D2E=      0 Chk=      7 Scr=      1
 Normal termination of Gaussian 09 at Thu Aug  8 23:25:13 2024.
