 Entering Gaussian System, Link 0=g09
 Input=Mn26.com
 Output=Mn26.log
 Initial command:
 /opt/SC/aplicaciones/g09-D.01/l1.exe "/tmpu/fercor_g/daram_a/Gau-9884.inp" -scrdir="/tmpu/fercor_g/daram_a/"
 Entering Link 1 = /opt/SC/aplicaciones/g09-D.01/l1.exe PID=      9885.
  
 Copyright (c) 1988,1990,1992,1993,1995,1998,2003,2009,2013,
            Gaussian, Inc.  All Rights Reserved.
  
 This is part of the Gaussian(R) 09 program.  It is based on
 the Gaussian(R) 03 system (copyright 2003, Gaussian, Inc.),
 the Gaussian(R) 98 system (copyright 1998, Gaussian, Inc.),
 the Gaussian(R) 94 system (copyright 1995, Gaussian, Inc.),
 the Gaussian 92(TM) system (copyright 1992, Gaussian, Inc.),
 the Gaussian 90(TM) system (copyright 1990, Gaussian, Inc.),
 the Gaussian 88(TM) system (copyright 1988, Gaussian, Inc.),
 the Gaussian 86(TM) system (copyright 1986, Carnegie Mellon
 University), and the Gaussian 82(TM) system (copyright 1983,
 Carnegie Mellon University). Gaussian is a federally registered
 trademark of Gaussian, Inc.
  
 This software contains proprietary and confidential information,
 including trade secrets, belonging to Gaussian, Inc.
  
 This software is provided under written license and may be
 used, copied, transmitted, or stored only in accord with that
 written license.
  
 The following legend is applicable only to US Government
 contracts under FAR:
  
                    RESTRICTED RIGHTS LEGEND
  
 Use, reproduction and disclosure by the US Government is
 subject to restrictions as set forth in subparagraphs (a)
 and (c) of the Commercial Computer Software - Restricted
 Rights clause in FAR 52.227-19.
  
 Gaussian, Inc.
 340 Quinnipiac St., Bldg. 40, Wallingford CT 06492
  
  
 ---------------------------------------------------------------
 Warning -- This program may not be used in any manner that
 competes with the business of Gaussian, Inc. or will provide
 assistance to any competitor of Gaussian, Inc.  The licensee
 of this program is prohibited from giving any competitor of
 Gaussian, Inc. access to this program.  By using this program,
 the user acknowledges that Gaussian, Inc. is engaged in the
 business of creating and licensing software in the field of
 computational chemistry and represents and warrants to the
 licensee that it is not a competitor of Gaussian, Inc. and that
 it will not use this program in any manner prohibited above.
 ---------------------------------------------------------------
  

 Cite this work as:
 Gaussian 09, Revision D.01,
 M. J. Frisch, G. W. Trucks, H. B. Schlegel, G. E. Scuseria, 
 M. A. Robb, J. R. Cheeseman, G. Scalmani, V. Barone, B. Mennucci, 
 G. A. Petersson, H. Nakatsuji, M. Caricato, X. Li, H. P. Hratchian, 
 A. F. Izmaylov, J. Bloino, G. Zheng, J. L. Sonnenberg, M. Hada, 
 M. Ehara, K. Toyota, R. Fukuda, J. Hasegawa, M. Ishida, T. Nakajima, 
 Y. Honda, O. Kitao, H. Nakai, T. Vreven, J. A. Montgomery, Jr., 
 J. E. Peralta, F. Ogliaro, M. Bearpark, J. J. Heyd, E. Brothers, 
 K. N. Kudin, V. N. Staroverov, T. Keith, R. Kobayashi, J. Normand, 
 K. Raghavachari, A. Rendell, J. C. Burant, S. S. Iyengar, J. Tomasi, 
 M. Cossi, N. Rega, J. M. Millam, M. Klene, J. E. Knox, J. B. Cross, 
 V. Bakken, C. Adamo, J. Jaramillo, R. Gomperts, R. E. Stratmann, 
 O. Yazyev, A. J. Austin, R. Cammi, C. Pomelli, J. W. Ochterski, 
 R. L. Martin, K. Morokuma, V. G. Zakrzewski, G. A. Voth, 
 P. Salvador, J. J. Dannenberg, S. Dapprich, A. D. Daniels, 
 O. Farkas, J. B. Foresman, J. V. Ortiz, J. Cioslowski, 
 and D. J. Fox, Gaussian, Inc., Wallingford CT, 2013.
 
 ******************************************
 Gaussian 09:  ES64L-G09RevD.01 24-Apr-2013
                29-Jun-2015 
 ******************************************
 %nprocshared=16
 Will use up to   16 processors via shared memory.
 %mem=32GB
 %chk=Mn26.chk
 -------------------------------------------------
 # opt 6-311++g(2d,2p) m062x output=wfnx scf=tight
 -------------------------------------------------
 1/14=-1,18=20,19=15,26=3,38=1/1,3;
 2/9=110,12=2,17=6,18=5,40=1/2;
 3/5=4,6=6,7=1212,11=2,16=1,25=1,30=1,71=1,74=-55/1,2,3;
 4//1;
 5/5=2,32=2,38=5/2;
 6/7=2,8=2,9=2,10=2,28=1/1;
 7//1,2,3,16;
 1/14=-1,18=20,19=15,26=3/3(2);
 2/9=110/2;
 99/6=200/99;
 2/9=110/2;
 3/5=4,6=6,7=1212,11=2,16=1,25=1,30=1,71=1,74=-55/1,2,3;
 4/5=5,16=3,69=1/1;
 5/5=2,32=2,38=5/2;
 7//1,2,3,16;
 1/14=-1,18=20,19=15,26=3/3(-5);
 2/9=110/2;
 6/7=2,8=2,9=2,10=2,19=2,28=1/1;
 99/6=200,9=1/99;
 -------------
 Mn[H2O]6 (2+)
 -------------
 Symbolic Z-matrix:
 Charge =  2 Multiplicity = 6
 Mn                    0.        0.        0. 
 O                    -0.02827   2.19172   0.00028 
 O                    -0.00219  -0.0019    2.1904 
 O                    -2.18848  -0.01963   0.00685 
 H                    -0.03521   2.76886   0.7726 
 H                    -0.0376    2.7631   -0.77647 
 H                     0.76598   0.01177   2.77301 
 H                    -0.78245  -0.01593   2.75674 
 H                    -2.75788  -0.79777  -0.00732 
 H                    -2.76747   0.75143  -0.00092 
 O                     0.02827  -2.19172  -0.00028 
 O                     0.00219   0.0019   -2.1904 
 O                     2.18848   0.01963  -0.00685 
 H                     0.03521  -2.76886  -0.7726 
 H                     0.0376   -2.7631    0.77647 
 H                    -0.76598  -0.01177  -2.77301 
 H                     0.78245   0.01593  -2.75674 
 H                     2.75788   0.79777   0.00732 
 H                     2.76747  -0.75143   0.00092 
 
 Add virtual bond connecting atoms O4         and Mn1        Dist= 4.14D+00.
 Add virtual bond connecting atoms O13        and Mn1        Dist= 4.14D+00.
 Add virtual bond connecting atoms O3         and Mn1        Dist= 4.14D+00.
 Add virtual bond connecting atoms O12        and Mn1        Dist= 4.14D+00.
 Add virtual bond connecting atoms O2         and Mn1        Dist= 4.14D+00.
 Add virtual bond connecting atoms O11        and Mn1        Dist= 4.14D+00.

 GradGradGradGradGradGradGradGradGradGradGradGradGradGradGradGradGradGrad
 Berny optimization.
 Initialization pass.
                           ----------------------------
                           !    Initial Parameters    !
                           ! (Angstroms and Degrees)  !
 --------------------------                            --------------------------
 ! Name  Definition              Value          Derivative Info.                !
 --------------------------------------------------------------------------------
 ! R1    R(1,2)                  2.1919         estimate D2E/DX2                !
 ! R2    R(1,3)                  2.1904         estimate D2E/DX2                !
 ! R3    R(1,4)                  2.1886         estimate D2E/DX2                !
 ! R4    R(1,11)                 2.1919         estimate D2E/DX2                !
 ! R5    R(1,12)                 2.1904         estimate D2E/DX2                !
 ! R6    R(1,13)                 2.1886         estimate D2E/DX2                !
 ! R7    R(2,5)                  0.9642         estimate D2E/DX2                !
 ! R8    R(2,6)                  0.9643         estimate D2E/DX2                !
 ! R9    R(3,7)                  0.9642         estimate D2E/DX2                !
 ! R10   R(3,8)                  0.9642         estimate D2E/DX2                !
 ! R11   R(4,9)                  0.9643         estimate D2E/DX2                !
 ! R12   R(4,10)                 0.9643         estimate D2E/DX2                !
 ! R13   R(11,14)                0.9642         estimate D2E/DX2                !
 ! R14   R(11,15)                0.9643         estimate D2E/DX2                !
 ! R15   R(12,16)                0.9642         estimate D2E/DX2                !
 ! R16   R(12,17)                0.9642         estimate D2E/DX2                !
 ! R17   R(13,18)                0.9643         estimate D2E/DX2                !
 ! R18   R(13,19)                0.9643         estimate D2E/DX2                !
 ! A1    A(2,1,3)               90.0416         estimate D2E/DX2                !
 ! A2    A(2,1,4)               89.7747         estimate D2E/DX2                !
 ! A3    A(2,1,12)              89.9584         estimate D2E/DX2                !
 ! A4    A(2,1,13)              90.2253         estimate D2E/DX2                !
 ! A5    A(3,1,4)               89.763          estimate D2E/DX2                !
 ! A6    A(3,1,11)              89.9584         estimate D2E/DX2                !
 ! A7    A(3,1,13)              90.237          estimate D2E/DX2                !
 ! A8    A(4,1,11)              90.2253         estimate D2E/DX2                !
 ! A9    A(4,1,12)              90.237          estimate D2E/DX2                !
 ! A10   A(11,1,12)             90.0416         estimate D2E/DX2                !
 ! A11   A(11,1,13)             89.7747         estimate D2E/DX2                !
 ! A12   A(12,1,13)             89.763          estimate D2E/DX2                !
 ! A13   A(1,2,5)              126.7797         estimate D2E/DX2                !
 ! A14   A(1,2,6)              126.3343         estimate D2E/DX2                !
 ! A15   A(5,2,6)              106.8859         estimate D2E/DX2                !
 ! A16   A(1,3,7)              127.116          estimate D2E/DX2                !
 ! A17   A(1,3,8)              126.0272         estimate D2E/DX2                !
 ! A18   A(7,3,8)              106.8567         estimate D2E/DX2                !
 ! A19   A(1,4,9)              126.7002         estimate D2E/DX2                !
 ! A20   A(1,4,10)             126.3859         estimate D2E/DX2                !
 ! A21   A(9,4,10)             106.8928         estimate D2E/DX2                !
 ! A22   A(1,11,14)            126.7797         estimate D2E/DX2                !
 ! A23   A(1,11,15)            126.3343         estimate D2E/DX2                !
 ! A24   A(14,11,15)           106.8859         estimate D2E/DX2                !
 ! A25   A(1,12,16)            127.116          estimate D2E/DX2                !
 ! A26   A(1,12,17)            126.0272         estimate D2E/DX2                !
 ! A27   A(16,12,17)           106.8567         estimate D2E/DX2                !
 ! A28   A(1,13,18)            126.7002         estimate D2E/DX2                !
 ! A29   A(1,13,19)            126.3859         estimate D2E/DX2                !
 ! A30   A(18,13,19)           106.8928         estimate D2E/DX2                !
 ! A31   L(2,1,11,3,-1)        180.0            estimate D2E/DX2                !
 ! A32   L(3,1,12,2,-1)        180.0            estimate D2E/DX2                !
 ! A33   L(4,1,13,2,-1)        180.0            estimate D2E/DX2                !
 ! A34   L(2,1,11,3,-2)        180.0            estimate D2E/DX2                !
 ! A35   L(3,1,12,2,-2)        180.0            estimate D2E/DX2                !
 ! A36   L(4,1,13,2,-2)        180.0            estimate D2E/DX2                !
 ! D1    D(3,1,2,5)              0.0957         estimate D2E/DX2                !
 ! D2    D(3,1,2,6)           -179.798          estimate D2E/DX2                !
 ! D3    D(4,1,2,5)             89.8585         estimate D2E/DX2                !
 ! D4    D(4,1,2,6)            -90.0352         estimate D2E/DX2                !
 ! D5    D(12,1,2,5)          -179.9043         estimate D2E/DX2                !
 ! D6    D(12,1,2,6)             0.202          estimate D2E/DX2                !
 ! D7    D(13,1,2,5)           -90.1415         estimate D2E/DX2                !
 ! D8    D(13,1,2,6)            89.9648         estimate D2E/DX2                !
 ! D9    D(5,2,11,14)          180.0            estimate D2E/DX2                !
 ! D10   D(5,2,11,15)           -0.1063         estimate D2E/DX2                !
 ! D11   D(6,2,11,14)            0.1063         estimate D2E/DX2                !
 ! D12   D(6,2,11,15)          180.0            estimate D2E/DX2                !
 ! D13   D(2,1,3,7)            -89.6824         estimate D2E/DX2                !
 ! D14   D(2,1,3,8)             90.2551         estimate D2E/DX2                !
 ! D15   D(4,1,3,7)           -179.4569         estimate D2E/DX2                !
 ! D16   D(4,1,3,8)              0.4805         estimate D2E/DX2                !
 ! D17   D(11,1,3,7)            90.3176         estimate D2E/DX2                !
 ! D18   D(11,1,3,8)           -89.7449         estimate D2E/DX2                !
 ! D19   D(13,1,3,7)             0.5431         estimate D2E/DX2                !
 ! D20   D(13,1,3,8)          -179.5195         estimate D2E/DX2                !
 ! D21   D(7,3,12,16)          180.0            estimate D2E/DX2                !
 ! D22   D(7,3,12,17)            0.0626         estimate D2E/DX2                !
 ! D23   D(8,3,12,16)           -0.0626         estimate D2E/DX2                !
 ! D24   D(8,3,12,17)          180.0            estimate D2E/DX2                !
 ! D25   D(2,1,4,9)            178.8227         estimate D2E/DX2                !
 ! D26   D(2,1,4,10)             0.7128         estimate D2E/DX2                !
 ! D27   D(3,1,4,9)            -91.1348         estimate D2E/DX2                !
 ! D28   D(3,1,4,10)            90.7553         estimate D2E/DX2                !
 ! D29   D(11,1,4,9)            -1.1773         estimate D2E/DX2                !
 ! D30   D(11,1,4,10)         -179.2872         estimate D2E/DX2                !
 ! D31   D(12,1,4,9)            88.8652         estimate D2E/DX2                !
 ! D32   D(12,1,4,10)          -89.2447         estimate D2E/DX2                !
 ! D33   D(9,4,13,18)          180.0            estimate D2E/DX2                !
 ! D34   D(9,4,13,19)           -1.8901         estimate D2E/DX2                !
 ! D35   D(10,4,13,18)           1.8901         estimate D2E/DX2                !
 ! D36   D(10,4,13,19)         180.0            estimate D2E/DX2                !
 ! D37   D(3,1,11,14)          179.9043         estimate D2E/DX2                !
 ! D38   D(3,1,11,15)           -0.202          estimate D2E/DX2                !
 ! D39   D(4,1,11,14)           90.1415         estimate D2E/DX2                !
 ! D40   D(4,1,11,15)          -89.9648         estimate D2E/DX2                !
 ! D41   D(12,1,11,14)          -0.0957         estimate D2E/DX2                !
 ! D42   D(12,1,11,15)         179.798          estimate D2E/DX2                !
 ! D43   D(13,1,11,14)         -89.8585         estimate D2E/DX2                !
 ! D44   D(13,1,11,15)          90.0352         estimate D2E/DX2                !
 ! D45   D(2,1,12,16)          -90.3176         estimate D2E/DX2                !
 ! D46   D(2,1,12,17)           89.7449         estimate D2E/DX2                !
 ! D47   D(4,1,12,16)           -0.5431         estimate D2E/DX2                !
 ! D48   D(4,1,12,17)          179.5195         estimate D2E/DX2                !
 ! D49   D(11,1,12,16)          89.6824         estimate D2E/DX2                !
 ! D50   D(11,1,12,17)         -90.2551         estimate D2E/DX2                !
 ! D51   D(13,1,12,16)         179.4569         estimate D2E/DX2                !
 ! D52   D(13,1,12,17)          -0.4805         estimate D2E/DX2                !
 ! D53   D(2,1,13,18)            1.1773         estimate D2E/DX2                !
 ! D54   D(2,1,13,19)          179.2872         estimate D2E/DX2                !
 ! D55   D(3,1,13,18)          -88.8652         estimate D2E/DX2                !
 ! D56   D(3,1,13,19)           89.2447         estimate D2E/DX2                !
 ! D57   D(11,1,13,18)        -178.8227         estimate D2E/DX2                !
 ! D58   D(11,1,13,19)          -0.7128         estimate D2E/DX2                !
 ! D59   D(12,1,13,18)          91.1348         estimate D2E/DX2                !
 ! D60   D(12,1,13,19)         -90.7553         estimate D2E/DX2                !
 --------------------------------------------------------------------------------
 Trust Radius=3.00D-01 FncErr=1.00D-07 GrdErr=1.00D-06
 Number of steps in this run=    114 maximum allowed number of steps=    114.
 GradGradGradGradGradGradGradGradGradGradGradGradGradGradGradGradGradGrad

                          Input orientation:                          
 ---------------------------------------------------------------------
 Center     Atomic      Atomic             Coordinates (Angstroms)
 Number     Number       Type             X           Y           Z
 ---------------------------------------------------------------------
      1         25           0        0.000000    0.000000    0.000000
      2          8           0       -0.028272    2.191716    0.000284
      3          8           0       -0.002186   -0.001903    2.190397
      4          8           0       -2.188477   -0.019626    0.006853
      5          1           0       -0.035206    2.768860    0.772603
      6          1           0       -0.037598    2.763103   -0.776473
      7          1           0        0.765982    0.011771    2.773012
      8          1           0       -0.782448   -0.015925    2.756741
      9          1           0       -2.757878   -0.797769   -0.007320
     10          1           0       -2.767466    0.751427   -0.000922
     11          8           0        0.028272   -2.191716   -0.000284
     12          8           0        0.002186    0.001903   -2.190397
     13          8           0        2.188477    0.019626   -0.006853
     14          1           0        0.035206   -2.768860   -0.772603
     15          1           0        0.037598   -2.763103    0.776473
     16          1           0       -0.765982   -0.011771   -2.773012
     17          1           0        0.782448    0.015925   -2.756741
     18          1           0        2.757878    0.797769    0.007320
     19          1           0        2.767466   -0.751427    0.000922
 ---------------------------------------------------------------------
                    Distance matrix (angstroms):
                    1          2          3          4          5
     1  Mn   0.000000
     2  O    2.191899   0.000000
     3  O    2.190399   3.099877   0.000000
     4  O    2.188576   3.091369   3.089992   0.000000
     5  H    2.874847   0.964168   3.112613   3.605358   0.000000
     6  H    2.870376   0.964324   4.055715   3.603257   1.549089
     7  H    2.876885   3.615387   0.964214   4.047401   3.499297
     8  H    2.865676   3.611166   0.964236   3.088498   3.500029
     9  H    2.870955   4.048189   3.613475   0.964327   4.554346
    10  H    2.867666   3.094772   3.607791   0.964267   3.483334
    11  O    2.191899   4.383797   3.097627   3.103547   5.020827
    12  O    2.190399   3.097627   4.380798   3.102801   4.054235
    13  O    2.188576   3.103547   3.102801   4.377151   3.620858
    14  H    2.874847   5.020827   4.054235   3.620858   5.749693
    15  H    2.870376   5.015679   3.102417   3.615853   5.532444
    16  H    2.876885   3.618114   5.021844   3.122692   4.564793
    17  H    2.865676   3.604515   5.009006   4.057722   4.550108
    18  H    2.870955   3.115409   3.608775   5.013438   3.503167
    19  H    2.867666   4.059341   3.609232   5.009684   4.565401
                    6          7          8          9         10
     6  H    0.000000
     7  H    4.562282   0.000000
     8  H    4.556468   1.548763   0.000000
     9  H    4.546574   4.561052   3.486207   0.000000
    10  H    3.478577   4.552697   3.483365   1.549240   0.000000
    11  O    5.015679   3.618114   3.604515   3.115409   4.059341
    12  O    3.102417   5.021844   5.009006   3.608775   3.609232
    13  O    3.615853   3.122692   4.057722   5.013438   5.009684
    14  H    5.532444   4.564793   4.550108   3.503167   4.565401
    15  H    5.740753   3.495231   3.484383   3.505931   4.563403
    16  H    3.495231   5.753769   5.529780   3.497785   3.503269
    17  H    3.484383   5.529780   5.731353   4.555802   4.553833
    18  H    3.505931   3.497785   4.555802   5.741910   5.525544
    19  H    4.563403   3.503269   4.553833   5.525544   5.735333
                   11         12         13         14         15
    11  O    0.000000
    12  O    3.099877   0.000000
    13  O    3.091369   3.089992   0.000000
    14  H    0.964168   3.112613   3.605358   0.000000
    15  H    0.964324   4.055715   3.603257   1.549089   0.000000
    16  H    3.615387   0.964214   4.047401   3.499297   4.562282
    17  H    3.611166   0.964236   3.088498   3.500029   4.556468
    18  H    4.048189   3.613475   0.964327   4.554346   4.546574
    19  H    3.094772   3.607791   0.964267   3.483334   3.478577
                   16         17         18         19
    16  H    0.000000
    17  H    1.548763   0.000000
    18  H    4.561052   3.486207   0.000000
    19  H    4.552697   3.483365   1.549240   0.000000
 Stoichiometry    H12MnO6(2+,6)
 Framework group  CI[O(Mn),X(H12O6)]
 Deg. of freedom    24
 Full point group                 CI      NOp   2
 Largest Abelian subgroup         CI      NOp   2
 Largest concise Abelian subgroup CI      NOp   2
                         Standard orientation:                         
 ---------------------------------------------------------------------
 Center     Atomic      Atomic             Coordinates (Angstroms)
 Number     Number       Type             X           Y           Z
 ---------------------------------------------------------------------
      1         25           0        0.000000    0.000000    0.000000
      2          8           0       -0.028272    2.191716    0.000284
      3          8           0       -0.002186   -0.001903    2.190397
      4          8           0       -2.188477   -0.019626    0.006853
      5          1           0       -0.035206    2.768860    0.772603
      6          1           0       -0.037598    2.763103   -0.776473
      7          1           0        0.765982    0.011771    2.773012
      8          1           0       -0.782448   -0.015925    2.756741
      9          1           0       -2.757878   -0.797769   -0.007320
     10          1           0       -2.767466    0.751427   -0.000922
     11          8           0        0.028272   -2.191716   -0.000284
     12          8           0        0.002186    0.001903   -2.190397
     13          8           0        2.188477    0.019626   -0.006853
     14          1           0        0.035206   -2.768860   -0.772603
     15          1           0        0.037598   -2.763103    0.776473
     16          1           0       -0.765982   -0.011771   -2.773012
     17          1           0        0.782448    0.015925   -2.756741
     18          1           0        2.757878    0.797769    0.007320
     19          1           0        2.767466   -0.751427    0.000922
 ---------------------------------------------------------------------
 Rotational constants (GHZ):      1.3566266      1.3543880      1.3494171
 Standard basis: 6-311++G(2d,2p) (5D, 7F)
 There are   181 symmetry adapted cartesian basis functions of AG  symmetry.
 There are   188 symmetry adapted cartesian basis functions of AU  symmetry.
 There are   171 symmetry adapted basis functions of AG  symmetry.
 There are   176 symmetry adapted basis functions of AU  symmetry.
   347 basis functions,   500 primitive gaussians,   369 cartesian basis functions
    44 alpha electrons       39 beta electrons
       nuclear repulsion energy       629.0499776458 Hartrees.
 NAtoms=   19 NActive=   19 NUniq=   10 SFac= 3.61D+00 NAtFMM=   60 NAOKFM=F Big=F
 Integral buffers will be    131072 words long.
 Raffenetti 2 integral format.
 Two-electron integral symmetry is turned on.
 One-electron integrals computed using PRISM.
 NBasis=   347 RedAO= T EigKep=  5.98D-04  NBF=   171   176
 NBsUse=   347 1.00D-06 EigRej= -1.00D+00 NBFU=   171   176
 ExpMin= 1.19D-02 ExpMax= 2.44D+05 ExpMxC= 8.22D+03 IAcc=3 IRadAn=         5 AccDes= 0.00D+00
 Harris functional with IExCor= 1009 and IRadAn=       5 diagonalized for initial guess.
 HarFok:  IExCor= 1009 AccDes= 0.00D+00 IRadAn=         5 IDoV= 1 UseB2=F ITyADJ=14
 ICtDFT=  3500011 ScaDFX=  1.000000  1.000000  1.000000  1.000000
 FoFCou: FMM=F IPFlag=           0 FMFlag=      100000 FMFlg1=           0
         NFxFlg=           0 DoJE=T BraDBF=F KetDBF=T FulRan=T
         wScrn=  0.000000 ICntrl=     500 IOpCl=  0 I1Cent=   200000004 NGrid=           0
         NMat0=    1 NMatS0=      1 NMatT0=    0 NMatD0=    1 NMtDS0=    0 NMtDT0=    0
 Petite list used in FoFCou.
 Initial guess orbital symmetries:
 Alpha Orbitals:
       Occupied  (AG) (AG) (AU) (AU) (AU) (AG) (AU) (AG) (AU) (AG)
                 (AU) (AG) (AU) (AU) (AU) (AG) (AU) (AU) (AU) (AG)
                 (AG) (AG) (AG) (AG) (AU) (AU) (AU) (AG) (AG) (AG)
                 (AU) (AU) (AU) (AG) (AG) (AG) (AU) (AU) (AU) (AG)
                 (AG) (AG) (AG) (AG)
       Virtual   (AG) (AU) (AU) (AU) (AG) (AG) (AG) (AG) (AG) (AG)
                 (AU) (AU) (AU) (AG) (AU) (AU) (AU) (AG) (AG) (AG)
                 (AG) (AG) (AG) (AU) (AU) (AU) (AU) (AU) (AU) (AU)
                 (AU) (AU) (AG) (AG) (AG) (AG) (AG) (AG) (AU) (AU)
                 (AU) (AG) (AG) (AG) (AU) (AU) (AU) (AG) (AG) (AG)
                 (AG) (AU) (AU) (AU) (AG) (AG) (AG) (AU) (AU) (AU)
                 (AG) (AG) (AU) (AU) (AU) (AG) (AG) (AG) (AU) (AU)
                 (AU) (AG) (AU) (AU) (AU) (AG) (AG) (AG) (AG) (AG)
                 (AU) (AU) (AU) (AG) (AG) (AU) (AU) (AU) (AG) (AG)
                 (AG) (AG) (AU) (AU) (AU) (AG) (AG) (AG) (AU) (AU)
                 (AU) (AU) (AU) (AU) (AG) (AG) (AG) (AG) (AG) (AG)
                 (AU) (AU) (AU) (AG) (AG) (AG) (AG) (AG) (AU) (AU)
                 (AU) (AU) (AG) (AG) (AG) (AU) (AU) (AU) (AG) (AG)
                 (AG) (AG) (AU) (AU) (AU) (AG) (AG) (AU) (AU) (AU)
                 (AU) (AU) (AU) (AG) (AG) (AG) (AG) (AU) (AU) (AU)
                 (AG) (AG) (AG) (AG) (AG) (AU) (AU) (AU) (AG) (AU)
                 (AU) (AU) (AG) (AG) (AU) (AU) (AU) (AG) (AU) (AU)
                 (AU) (AG) (AG) (AG) (AG) (AG) (AU) (AU) (AU) (AG)
                 (AU) (AU) (AU) (AG) (AG) (AG) (AG) (AG) (AU) (AU)
                 (AU) (AG) (AU) (AU) (AU) (AG) (AG) (AG) (AG) (AG)
                 (AG) (AU) (AU) (AU) (AU) (AU) (AU) (AG) (AG) (AG)
                 (AG) (AG) (AG) (AU) (AU) (AU) (AG) (AG) (AU) (AU)
                 (AU) (AG) (AU) (AU) (AU) (AG) (AG) (AG) (AG) (AG)
                 (AG) (AU) (AU) (AU) (AU) (AG) (AG) (AG) (AU) (AU)
                 (AU) (AU) (AU) (AU) (AG) (AG) (AU) (AU) (AU) (AG)
                 (AG) (AG) (AG) (AG) (AG) (AU) (AU) (AU) (AG) (AG)
                 (AG) (AU) (AU) (AU) (AU) (AU) (AU) (AG) (AG) (AG)
                 (AG) (AU) (AU) (AU) (AG) (AG) (AU) (AU) (AU) (AG)
                 (AG) (AG) (AU) (AU) (AU) (AG) (AG) (AG) (AU) (AU)
                 (AU) (AG) (AU) (AU) (AU) (AG) (AG) (AG) (AU) (AU)
                 (AU) (AG) (AG)
 Beta  Orbitals:
       Occupied  (AG) (AG) (AU) (AU) (AU) (AG) (AU) (AG) (AU) (AG)
                 (AU) (AG) (AU) (AU) (AU) (AG) (AU) (AU) (AU) (AG)
                 (AG) (AG) (AG) (AG) (AU) (AU) (AU) (AG) (AG) (AG)
                 (AU) (AU) (AU) (AG) (AG) (AG) (AU) (AU) (AU)
       Virtual   (AG) (AG) (AG) (AG) (AG) (AG) (AU) (AU) (AU) (AG)
                 (AG) (AG) (AG) (AG) (AG) (AU) (AU) (AU) (AG) (AU)
                 (AU) (AU) (AG) (AG) (AG) (AG) (AG) (AG) (AU) (AU)
                 (AU) (AU) (AU) (AU) (AU) (AU) (AU) (AG) (AG) (AG)
                 (AG) (AG) (AG) (AU) (AU) (AU) (AG) (AG) (AG) (AU)
                 (AU) (AU) (AG) (AG) (AG) (AG) (AU) (AU) (AU) (AG)
                 (AG) (AG) (AU) (AU) (AU) (AG) (AG) (AU) (AU) (AU)
                 (AG) (AG) (AG) (AU) (AU) (AU) (AG) (AU) (AU) (AU)
                 (AG) (AG) (AG) (AG) (AG) (AU) (AU) (AU) (AG) (AG)
                 (AU) (AU) (AU) (AG) (AG) (AG) (AG) (AU) (AU) (AU)
                 (AG) (AG) (AG) (AU) (AU) (AU) (AU) (AU) (AU) (AG)
                 (AG) (AG) (AG) (AG) (AG) (AU) (AU) (AU) (AG) (AG)
                 (AG) (AG) (AG) (AU) (AU) (AU) (AU) (AG) (AG) (AG)
                 (AU) (AU) (AU) (AG) (AG) (AG) (AG) (AU) (AU) (AU)
                 (AG) (AG) (AU) (AU) (AU) (AU) (AU) (AU) (AG) (AG)
                 (AG) (AG) (AU) (AU) (AU) (AG) (AG) (AG) (AG) (AG)
                 (AU) (AU) (AU) (AG) (AU) (AU) (AU) (AG) (AG) (AU)
                 (AU) (AU) (AG) (AU) (AU) (AU) (AG) (AG) (AG) (AG)
                 (AG) (AU) (AU) (AU) (AG) (AU) (AU) (AU) (AG) (AG)
                 (AG) (AG) (AG) (AU) (AU) (AU) (AG) (AU) (AU) (AU)
                 (AG) (AG) (AG) (AG) (AG) (AG) (AU) (AU) (AU) (AU)
                 (AU) (AU) (AG) (AG) (AG) (AG) (AG) (AG) (AU) (AU)
                 (AU) (AG) (AG) (AU) (AU) (AU) (AG) (AU) (AU) (AU)
                 (AG) (AG) (AG) (AG) (AG) (AG) (AU) (AU) (AU) (AU)
                 (AG) (AG) (AG) (AU) (AU) (AU) (AU) (AU) (AU) (AG)
                 (AG) (AU) (AU) (AU) (AG) (AG) (AG) (AG) (AG) (AG)
                 (AU) (AU) (AU) (AG) (AG) (AG) (AU) (AU) (AU) (AU)
                 (AU) (AU) (AG) (AG) (AG) (AG) (AU) (AU) (AU) (AG)
                 (AG) (AU) (AU) (AU) (AG) (AG) (AG) (AU) (AU) (AU)
                 (AG) (AG) (AG) (AU) (AU) (AU) (AG) (AU) (AU) (AU)
                 (AG) (AG) (AG) (AU) (AU) (AU) (AG) (AG)
 The electronic state of the initial guess is 6-AG.
 Initial guess <Sx>= 0.0000 <Sy>= 0.0000 <Sz>= 2.5000 <S**2>= 8.7500 S= 2.5000
 Keep R1 and R2 ints in memory in symmetry-blocked form, NReq=2734803760.
 Requested convergence on RMS density matrix=1.00D-08 within 128 cycles.
 Requested convergence on MAX density matrix=1.00D-06.
 Requested convergence on             energy=1.00D-06.
 No special actions if energy rises.
 SCF Done:  E(UM062X) =  -1609.14189478     A.U. after   12 cycles
            NFock= 12  Conv=0.28D-08     -V/T= 2.0016
 <Sx>= 0.0000 <Sy>= 0.0000 <Sz>= 2.5000 <S**2>= 8.7518 S= 2.5003
 <L.S>= 0.000000000000E+00
 Annihilation of the first spin contaminant:
 S**2 before annihilation     8.7518,   after     8.7500

 **********************************************************************

            Population analysis using the SCF density.

 **********************************************************************

 Orbital symmetries:
 Alpha Orbitals:
       Occupied  (AG) (AG) (AU) (AU) (AU) (AG) (AU) (AG) (AU) (AG)
                 (AU) (AG) (AU) (AU) (AU) (AG) (AU) (AU) (AU) (AG)
                 (AG) (AG) (AG) (AG) (AU) (AU) (AU) (AG) (AG) (AG)
                 (AU) (AU) (AU) (AG) (AG) (AG) (AU) (AU) (AU) (AG)
                 (AG) (AG) (AG) (AG)
       Virtual   (AG) (AU) (AU) (AU) (AG) (AG) (AG) (AG) (AG) (AU)
                 (AU) (AU) (AG) (AU) (AU) (AU) (AG) (AG) (AG) (AG)
                 (AU) (AU) (AU) (AG) (AG) (AG) (AU) (AU) (AU) (AU)
                 (AU) (AU) (AG) (AG) (AG) (AG) (AG) (AG) (AG) (AG)
                 (AG) (AU) (AU) (AU) (AU) (AU) (AU) (AG) (AG) (AG)
                 (AG) (AU) (AU) (AU) (AG) (AG) (AG) (AU) (AU) (AU)
                 (AG) (AG) (AG) (AU) (AG) (AU) (AU) (AG) (AU) (AU)
                 (AU) (AG) (AU) (AU) (AU) (AG) (AG) (AG) (AG) (AG)
                 (AU) (AU) (AU) (AG) (AG) (AU) (AU) (AU) (AG) (AG)
                 (AG) (AG) (AU) (AU) (AU) (AG) (AG) (AG) (AU) (AU)
                 (AU) (AU) (AU) (AU) (AG) (AG) (AG) (AG) (AG) (AG)
                 (AU) (AU) (AU) (AG) (AG) (AG) (AG) (AG) (AU) (AU)
                 (AU) (AU) (AG) (AG) (AG) (AU) (AU) (AU) (AG) (AG)
                 (AG) (AG) (AU) (AU) (AU) (AG) (AG) (AU) (AU) (AU)
                 (AU) (AU) (AU) (AG) (AG) (AG) (AG) (AU) (AU) (AG)
                 (AG) (AU) (AU) (AU) (AU) (AG) (AG) (AG) (AG) (AU)
                 (AU) (AU) (AU) (AU) (AU) (AG) (AG) (AG) (AU) (AU)
                 (AU) (AG) (AG) (AG) (AG) (AG) (AU) (AU) (AU) (AG)
                 (AU) (AU) (AU) (AG) (AG) (AG) (AG) (AG) (AU) (AU)
                 (AU) (AG) (AU) (AU) (AU) (AG) (AG) (AG) (AG) (AG)
                 (AG) (AU) (AU) (AU) (AU) (AG) (AU) (AU) (AG) (AG)
                 (AG) (AG) (AG) (AU) (AU) (AU) (AU) (AU) (AU) (AG)
                 (AG) (AG) (AU) (AU) (AU) (AG) (AG) (AG) (AG) (AU)
                 (AU) (AG) (AU) (AG) (AU) (AU) (AU) (AU) (AG) (AG)
                 (AG) (AU) (AU) (AU) (AG) (AG) (AU) (AU) (AU) (AG)
                 (AG) (AG) (AG) (AG) (AG) (AU) (AU) (AU) (AG) (AG)
                 (AG) (AU) (AU) (AU) (AU) (AU) (AU) (AG) (AG) (AG)
                 (AG) (AU) (AU) (AU) (AG) (AG) (AU) (AU) (AU) (AG)
                 (AG) (AG) (AU) (AU) (AU) (AG) (AG) (AG) (AU) (AU)
                 (AU) (AG) (AU) (AU) (AU) (AG) (AG) (AG) (AU) (AU)
                 (AU) (AG) (AG)
 Beta  Orbitals:
       Occupied  (AG) (AG) (AU) (AU) (AU) (AG) (AU) (AG) (AU) (AG)
                 (AU) (AG) (AU) (AU) (AU) (AG) (AU) (AU) (AU) (AG)
                 (AG) (AG) (AG) (AU) (AG) (AU) (AU) (AG) (AU) (AU)
                 (AU) (AG) (AG) (AG) (AG) (AG) (AU) (AU) (AU)
       Virtual   (AG) (AU) (AU) (AU) (AG) (AG) (AG) (AG) (AG) (AG)
                 (AG) (AG) (AU) (AU) (AU) (AG) (AG) (AG) (AU) (AU)
                 (AU) (AG) (AG) (AG) (AG) (AU) (AU) (AU) (AG) (AG)
                 (AG) (AU) (AU) (AU) (AU) (AU) (AU) (AG) (AG) (AG)
                 (AG) (AG) (AG) (AU) (AU) (AU) (AG) (AG) (AG) (AU)
                 (AU) (AU) (AG) (AG) (AG) (AG) (AU) (AU) (AU) (AU)
                 (AU) (AU) (AG) (AG) (AG) (AG) (AG) (AU) (AU) (AU)
                 (AG) (AG) (AG) (AU) (AU) (AU) (AG) (AU) (AU) (AU)
                 (AG) (AG) (AG) (AG) (AG) (AU) (AU) (AU) (AG) (AG)
                 (AU) (AU) (AU) (AG) (AG) (AG) (AG) (AU) (AU) (AU)
                 (AG) (AG) (AG) (AU) (AU) (AU) (AU) (AU) (AU) (AG)
                 (AG) (AG) (AG) (AG) (AG) (AU) (AU) (AU) (AG) (AG)
                 (AG) (AG) (AG) (AU) (AU) (AU) (AU) (AG) (AG) (AG)
                 (AU) (AU) (AU) (AG) (AG) (AG) (AG) (AU) (AU) (AU)
                 (AG) (AG) (AU) (AU) (AU) (AU) (AU) (AU) (AG) (AG)
                 (AG) (AG) (AU) (AU) (AU) (AG) (AG) (AG) (AG) (AG)
                 (AU) (AU) (AU) (AG) (AU) (AU) (AU) (AU) (AU) (AU)
                 (AG) (AG) (AG) (AU) (AU) (AU) (AG) (AG) (AG) (AG)
                 (AG) (AU) (AU) (AU) (AG) (AU) (AU) (AU) (AG) (AG)
                 (AG) (AG) (AG) (AU) (AU) (AU) (AG) (AU) (AU) (AU)
                 (AG) (AG) (AG) (AG) (AG) (AG) (AU) (AU) (AU) (AG)
                 (AG) (AU) (AG) (AU) (AU) (AG) (AG) (AG) (AU) (AU)
                 (AU) (AU) (AU) (AU) (AG) (AG) (AG) (AU) (AU) (AU)
                 (AG) (AG) (AG) (AG) (AG) (AG) (AU) (AU) (AU) (AU)
                 (AU) (AU) (AU) (AG) (AG) (AG) (AU) (AU) (AU) (AU)
                 (AU) (AU) (AG) (AG) (AG) (AG) (AG) (AG) (AG) (AG)
                 (AU) (AU) (AU) (AG) (AG) (AG) (AU) (AU) (AU) (AU)
                 (AU) (AU) (AG) (AG) (AG) (AG) (AU) (AU) (AU) (AG)
                 (AG) (AU) (AU) (AU) (AG) (AG) (AG) (AU) (AU) (AU)
                 (AG) (AG) (AG) (AU) (AU) (AU) (AG) (AU) (AU) (AU)
                 (AG) (AG) (AG) (AU) (AU) (AU) (AG) (AG)
 The electronic state is 6-AG.
 Alpha  occ. eigenvalues -- -237.49447 -28.16679 -24.24326 -24.24325 -24.24324
 Alpha  occ. eigenvalues --  -19.95714 -19.95714 -19.95697 -19.95697 -19.95688
 Alpha  occ. eigenvalues --  -19.95687  -3.76468  -2.62198  -2.62195  -2.62194
 Alpha  occ. eigenvalues --   -1.47110  -1.46565  -1.46547  -1.46533  -1.46420
 Alpha  occ. eigenvalues --   -1.46404  -0.94335  -0.94313  -0.94301  -0.94195
 Alpha  occ. eigenvalues --   -0.94176  -0.94161  -0.87806  -0.86789  -0.86753
 Alpha  occ. eigenvalues --   -0.83709  -0.83671  -0.83654  -0.76607  -0.76575
 Alpha  occ. eigenvalues --   -0.76554  -0.73728  -0.73697  -0.73674  -0.71139
 Alpha  occ. eigenvalues --   -0.71134  -0.71128  -0.68294  -0.68263
 Alpha virt. eigenvalues --   -0.28572  -0.24590  -0.24574  -0.24568  -0.21068
 Alpha virt. eigenvalues --   -0.21066  -0.19287  -0.19264  -0.19254  -0.17008
 Alpha virt. eigenvalues --   -0.17003  -0.16991  -0.15792  -0.13083  -0.13054
 Alpha virt. eigenvalues --   -0.13033  -0.09281  -0.08985  -0.08941  -0.08935
 Alpha virt. eigenvalues --   -0.07192  -0.07180  -0.07151  -0.06626  -0.06565
 Alpha virt. eigenvalues --   -0.06503  -0.04552  -0.04517  -0.04491  -0.03049
 Alpha virt. eigenvalues --   -0.03009  -0.02994  -0.02856  -0.02841  -0.02835
 Alpha virt. eigenvalues --   -0.02551  -0.02547   0.01523   0.01588   0.01670
 Alpha virt. eigenvalues --    0.01720   0.01973   0.01991   0.02008   0.05126
 Alpha virt. eigenvalues --    0.05138   0.05149   0.08858   0.14049   0.14096
 Alpha virt. eigenvalues --    0.14103   0.16803   0.16816   0.16844   0.17919
 Alpha virt. eigenvalues --    0.18234   0.18506   0.18993   0.19085   0.19132
 Alpha virt. eigenvalues --    0.26677   0.26707   0.30890   0.31057   0.31068
 Alpha virt. eigenvalues --    0.31093   0.31137   0.31239   0.34943   0.34966
 Alpha virt. eigenvalues --    0.35024   0.35903   0.39281   0.41130   0.41134
 Alpha virt. eigenvalues --    0.42937   0.42956   0.43489   0.43550   0.43630
 Alpha virt. eigenvalues --    0.54848   0.55076   0.55177   0.58992   0.59051
 Alpha virt. eigenvalues --    0.61728   0.61927   0.62129   0.63323   0.63474
 Alpha virt. eigenvalues --    0.63529   0.63635   0.67204   0.67305   0.67445
 Alpha virt. eigenvalues --    0.69282   0.69373   0.69397   0.74307   0.74356
 Alpha virt. eigenvalues --    0.74491   0.82979   0.83062   0.83167   0.84785
 Alpha virt. eigenvalues --    0.84869   0.84979   0.86848   0.86912   0.87688
 Alpha virt. eigenvalues --    0.93496   0.93764   0.94042   0.96783   0.97274
 Alpha virt. eigenvalues --    0.97637   1.03878   1.03911   1.04932   1.13415
 Alpha virt. eigenvalues --    1.13493   1.13569   1.14244   1.14280   1.14337
 Alpha virt. eigenvalues --    1.19432   1.19473   1.19493   1.22619   1.22645
 Alpha virt. eigenvalues --    1.22734   1.25367   1.31113   1.31151   1.31174
 Alpha virt. eigenvalues --    1.33278   1.33297   1.38010   1.38170   1.38260
 Alpha virt. eigenvalues --    1.41132   1.41238   1.41268   1.47002   1.49845
 Alpha virt. eigenvalues --    1.49976   1.50020   1.50847   1.50853   1.54655
 Alpha virt. eigenvalues --    1.54696   1.55178   1.58068   1.58198   1.58318
 Alpha virt. eigenvalues --    1.60137   1.60244   1.60348   1.70863   1.77899
 Alpha virt. eigenvalues --    1.78155   1.78278   1.92501   1.92544   1.92632
 Alpha virt. eigenvalues --    1.93576   1.93665   2.04468   2.07500   2.07656
 Alpha virt. eigenvalues --    2.08169   2.10686   2.10808   2.11611   2.12098
 Alpha virt. eigenvalues --    2.12235   2.18393   2.18500   2.18828   2.24068
 Alpha virt. eigenvalues --    2.35418   2.35512   2.35779   2.44953   2.45015
 Alpha virt. eigenvalues --    2.59132   2.59179   2.59202   2.65371   2.65408
 Alpha virt. eigenvalues --    2.65445   3.06612   3.40917   3.41872   3.41885
 Alpha virt. eigenvalues --    3.44632   3.44942   3.45215   3.51054   3.51078
 Alpha virt. eigenvalues --    3.51143   3.52795   3.52883   3.53101   3.57483
 Alpha virt. eigenvalues --    3.57488   3.57491   3.57506   3.57510   3.57522
 Alpha virt. eigenvalues --    3.82372   3.82410   3.82514   3.84050   3.84134
 Alpha virt. eigenvalues --    3.84200   3.84912   3.84966   3.84967   3.85171
 Alpha virt. eigenvalues --    3.85189   3.86680   3.95700   3.95741   3.95763
 Alpha virt. eigenvalues --    3.98503   3.99552   3.99570   4.91298   4.91411
 Alpha virt. eigenvalues --    4.91442   4.91468   4.91475   4.91580   5.02279
 Alpha virt. eigenvalues --    5.15314   5.15341   5.15372   5.17297   5.17328
 Alpha virt. eigenvalues --    5.17365   5.36417   5.36527   5.36660   5.43635
 Alpha virt. eigenvalues --    5.43801   5.47609   5.47819   5.48075   5.55885
 Alpha virt. eigenvalues --    5.55910   5.56101   5.94300   5.94352   5.94378
 Alpha virt. eigenvalues --    5.97779   5.97841   5.97843   6.53438   6.53522
 Alpha virt. eigenvalues --    6.53547   6.54339   6.54349   6.56060   6.59583
 Alpha virt. eigenvalues --    6.59785   6.59982   6.63202   6.63286   6.63424
 Alpha virt. eigenvalues --    6.74224   6.83270   6.83343   6.83373   6.93054
 Alpha virt. eigenvalues --    6.93158   6.95064   6.95121   6.95166   6.96779
 Alpha virt. eigenvalues --    7.00000   7.00034   7.13363   7.13464   7.13804
 Alpha virt. eigenvalues --    7.14048   7.14110   7.14190   7.43156   7.43298
 Alpha virt. eigenvalues --    7.43532  23.90162  30.86781  30.86874  30.87001
 Alpha virt. eigenvalues --   49.75548  49.75555  49.75623  49.75758  49.75817
 Alpha virt. eigenvalues --   49.75881 134.61359 713.66401
  Beta  occ. eigenvalues -- -237.49687 -28.05777 -24.15244 -24.15242 -24.15240
  Beta  occ. eigenvalues --  -19.95613 -19.95613 -19.95596 -19.95596 -19.95586
  Beta  occ. eigenvalues --  -19.95586  -3.53889  -2.33639  -2.33634  -2.33631
  Beta  occ. eigenvalues --   -1.46905  -1.46352  -1.46334  -1.46320  -1.46202
  Beta  occ. eigenvalues --   -1.46185  -0.94090  -0.94069  -0.94066  -0.94058
  Beta  occ. eigenvalues --   -0.94048  -0.94033  -0.87334  -0.83347  -0.83309
  Beta  occ. eigenvalues --   -0.83292  -0.83056  -0.83030  -0.73615  -0.73582
  Beta  occ. eigenvalues --   -0.73566  -0.73374  -0.73343  -0.73321
  Beta virt. eigenvalues --   -0.28303  -0.24503  -0.24487  -0.24482  -0.22279
  Beta virt. eigenvalues --   -0.22274  -0.22251  -0.21917  -0.21915  -0.19178
  Beta virt. eigenvalues --   -0.19153  -0.19143  -0.16927  -0.16923  -0.16912
  Beta virt. eigenvalues --   -0.15233  -0.15004  -0.14976  -0.12847  -0.12818
  Beta virt. eigenvalues --   -0.12800  -0.09025  -0.08761  -0.08755  -0.07248
  Beta virt. eigenvalues --   -0.06838  -0.06825  -0.06802  -0.05686  -0.05647
  Beta virt. eigenvalues --   -0.05582  -0.04296  -0.04257  -0.04229  -0.02942
  Beta virt. eigenvalues --   -0.02903  -0.02889  -0.02667  -0.02658  -0.02653
  Beta virt. eigenvalues --   -0.02205  -0.02203   0.02072   0.02452   0.02477
  Beta virt. eigenvalues --    0.02496   0.03274   0.03404   0.03512   0.05165
  Beta virt. eigenvalues --    0.05184   0.05189   0.08813   0.14055   0.14061
  Beta virt. eigenvalues --    0.14665   0.17497   0.17525   0.17572   0.19765
  Beta virt. eigenvalues --    0.19838   0.19921   0.20806   0.21077   0.21311
  Beta virt. eigenvalues --    0.27287   0.27314   0.31118   0.31152   0.31200
  Beta virt. eigenvalues --    0.31437   0.31651   0.31846   0.35046   0.35069
  Beta virt. eigenvalues --    0.35130   0.35926   0.39273   0.41112   0.41116
  Beta virt. eigenvalues --    0.43646   0.43667   0.43740   0.43869   0.43873
  Beta virt. eigenvalues --    0.55071   0.55312   0.55420   0.60352   0.60410
  Beta virt. eigenvalues --    0.62212   0.62423   0.62624   0.63391   0.63488
  Beta virt. eigenvalues --    0.63556   0.63714   0.67435   0.67531   0.67667
  Beta virt. eigenvalues --    0.69302   0.69394   0.69419   0.74487   0.74553
  Beta virt. eigenvalues --    0.74687   0.83483   0.83571   0.83684   0.85642
  Beta virt. eigenvalues --    0.85723   0.85837   0.88163   0.89568   0.89644
  Beta virt. eigenvalues --    0.93920   0.94204   0.94490   0.96647   0.97143
  Beta virt. eigenvalues --    0.97508   1.05089   1.05126   1.08250   1.13707
  Beta virt. eigenvalues --    1.13781   1.13852   1.16162   1.16205   1.16273
  Beta virt. eigenvalues --    1.19491   1.19533   1.19551   1.25631   1.28076
  Beta virt. eigenvalues --    1.28091   1.28195   1.31916   1.31959   1.31981
  Beta virt. eigenvalues --    1.34340   1.34359   1.40965   1.41138   1.41255
  Beta virt. eigenvalues --    1.42762   1.42889   1.42947   1.47331   1.50327
  Beta virt. eigenvalues --    1.50475   1.50528   1.50848   1.50859   1.55543
  Beta virt. eigenvalues --    1.55564   1.55598   1.60217   1.60317   1.60438
  Beta virt. eigenvalues --    1.60735   1.60822   1.60915   1.71763   1.80379
  Beta virt. eigenvalues --    1.80685   1.80828   1.93213   1.93254   1.93354
  Beta virt. eigenvalues --    1.95112   1.95172   2.04576   2.08104   2.08271
  Beta virt. eigenvalues --    2.08830   2.11850   2.12336   2.12474   2.14341
  Beta virt. eigenvalues --    2.14514   2.21018   2.21075   2.21379   2.24113
  Beta virt. eigenvalues --    2.36199   2.36268   2.36536   2.45223   2.45286
  Beta virt. eigenvalues --    2.59323   2.59370   2.59395   2.65722   2.65758
  Beta virt. eigenvalues --    2.65797   3.16629   3.40963   3.41883   3.41896
  Beta virt. eigenvalues --    3.44646   3.44956   3.45229   3.51049   3.51073
  Beta virt. eigenvalues --    3.51138   3.52798   3.52886   3.53107   3.57522
  Beta virt. eigenvalues --    3.57545   3.57549   3.57557   3.57558   3.57575
  Beta virt. eigenvalues --    3.82514   3.82552   3.82655   3.84433   3.84515
  Beta virt. eigenvalues --    3.84571   3.85167   3.85211   3.85230   3.85823
  Beta virt. eigenvalues --    3.85843   3.87206   3.95801   3.95841   3.95863
  Beta virt. eigenvalues --    3.98582   3.99753   3.99771   4.91562   4.91732
  Beta virt. eigenvalues --    4.91845   4.91879   4.91907   4.91944   5.16809
  Beta virt. eigenvalues --    5.28979   5.29011   5.29036   5.35073   5.35106
  Beta virt. eigenvalues --    5.35136   5.47323   5.47728   5.47882   5.49035
  Beta virt. eigenvalues --    5.49231   5.49455   5.50591   5.50701   5.56224
  Beta virt. eigenvalues --    5.64816   5.65067   5.94574   5.94628   5.94653
  Beta virt. eigenvalues --    5.98194   5.98247   5.98254   6.53604   6.53691
  Beta virt. eigenvalues --    6.53717   6.54488   6.54497   6.56231   6.60034
  Beta virt. eigenvalues --    6.60234   6.60433   6.63324   6.63408   6.63547
  Beta virt. eigenvalues --    6.74085   6.84631   6.84684   6.84705   6.93877
  Beta virt. eigenvalues --    6.93973   6.95256   6.95311   6.95354   6.96919
  Beta virt. eigenvalues --    7.00640   7.00685   7.13514   7.13618   7.13955
  Beta virt. eigenvalues --    7.14110   7.14173   7.14252   7.50084   7.50220
  Beta virt. eigenvalues --    7.50451  24.13903  30.97566  30.97658  30.97789
  Beta virt. eigenvalues --   49.75519  49.75527  49.75591  49.75728  49.75787
  Beta virt. eigenvalues --   49.75852 134.62374 713.65645
          Condensed to atoms (all electrons):
               1          2          3          4          5          6
     1  Mn  24.099432   0.101647   0.101632   0.102073  -0.026734  -0.026874
     2  O    0.101647   7.960268  -0.046095  -0.047068   0.274741   0.274323
     3  O    0.101632  -0.046095   7.960234  -0.047218   0.005210   0.000555
     4  O    0.102073  -0.047068  -0.047218   7.960831   0.002022   0.001981
     5  H   -0.026734   0.274741   0.005210   0.002022   0.394581   0.000339
     6  H   -0.026874   0.274323   0.000555   0.001981   0.000339   0.395145
     7  H   -0.026569   0.001971   0.275003   0.000533   0.000378   0.000426
     8  H   -0.027113   0.001982   0.274062   0.005488   0.000380   0.000432
     9  H   -0.026821   0.000547   0.002024   0.274599   0.000441   0.000439
    10  H   -0.027094   0.005463   0.002076   0.274105   0.000377   0.000392
    11  O    0.101647   0.012052  -0.046343  -0.046232  -0.000023  -0.000019
    12  O    0.101632  -0.046343   0.012124  -0.046401   0.000531   0.005350
    13  O    0.102073  -0.046232  -0.046401   0.012208   0.001934   0.002023
    14  H   -0.026734  -0.000023   0.000531   0.001934   0.000096  -0.000055
    15  H   -0.026874  -0.000019   0.005350   0.002023  -0.000055   0.000095
    16  H   -0.026569   0.001970  -0.000026   0.005122   0.000432   0.000383
    17  H   -0.027113   0.002028  -0.000019   0.000564   0.000437   0.000372
    18  H   -0.026821   0.005212   0.001942  -0.000033   0.000395   0.000366
    19  H   -0.027094   0.000566   0.001980  -0.000019   0.000425   0.000428
               7          8          9         10         11         12
     1  Mn  -0.026569  -0.027113  -0.026821  -0.027094   0.101647   0.101632
     2  O    0.001971   0.001982   0.000547   0.005463   0.012052  -0.046343
     3  O    0.275003   0.274062   0.002024   0.002076  -0.046343   0.012124
     4  O    0.000533   0.005488   0.274599   0.274105  -0.046232  -0.046401
     5  H    0.000378   0.000380   0.000441   0.000377  -0.000023   0.000531
     6  H    0.000426   0.000432   0.000439   0.000392  -0.000019   0.005350
     7  H    0.394437   0.000367   0.000436   0.000439   0.001970  -0.000026
     8  H    0.000367   0.395397   0.000394   0.000388   0.002028  -0.000019
     9  H    0.000436   0.000394   0.394616   0.000461   0.005212   0.001942
    10  H    0.000439   0.000388   0.000461   0.395139   0.000566   0.001980
    11  O    0.001970   0.002028   0.005212   0.000566   7.960268  -0.046095
    12  O   -0.000026  -0.000019   0.001942   0.001980  -0.046095   7.960234
    13  O    0.005122   0.000564  -0.000033  -0.000019  -0.047068  -0.047218
    14  H    0.000432   0.000437   0.000395   0.000425   0.274741   0.005210
    15  H    0.000383   0.000372   0.000366   0.000428   0.274323   0.000555
    16  H    0.000096  -0.000055   0.000372   0.000371   0.001971   0.275003
    17  H   -0.000055   0.000096   0.000435   0.000433   0.001982   0.274062
    18  H    0.000372   0.000435   0.000097  -0.000055   0.000547   0.002024
    19  H    0.000371   0.000433  -0.000055   0.000097   0.005463   0.002076
              13         14         15         16         17         18
     1  Mn   0.102073  -0.026734  -0.026874  -0.026569  -0.027113  -0.026821
     2  O   -0.046232  -0.000023  -0.000019   0.001970   0.002028   0.005212
     3  O   -0.046401   0.000531   0.005350  -0.000026  -0.000019   0.001942
     4  O    0.012208   0.001934   0.002023   0.005122   0.000564  -0.000033
     5  H    0.001934   0.000096  -0.000055   0.000432   0.000437   0.000395
     6  H    0.002023  -0.000055   0.000095   0.000383   0.000372   0.000366
     7  H    0.005122   0.000432   0.000383   0.000096  -0.000055   0.000372
     8  H    0.000564   0.000437   0.000372  -0.000055   0.000096   0.000435
     9  H   -0.000033   0.000395   0.000366   0.000372   0.000435   0.000097
    10  H   -0.000019   0.000425   0.000428   0.000371   0.000433  -0.000055
    11  O   -0.047068   0.274741   0.274323   0.001971   0.001982   0.000547
    12  O   -0.047218   0.005210   0.000555   0.275003   0.274062   0.002024
    13  O    7.960831   0.002022   0.001981   0.000533   0.005488   0.274599
    14  H    0.002022   0.394581   0.000339   0.000378   0.000380   0.000441
    15  H    0.001981   0.000339   0.395145   0.000426   0.000432   0.000439
    16  H    0.000533   0.000378   0.000426   0.394437   0.000367   0.000436
    17  H    0.005488   0.000380   0.000432   0.000367   0.395397   0.000394
    18  H    0.274599   0.000441   0.000439   0.000436   0.000394   0.394616
    19  H    0.274105   0.000377   0.000392   0.000439   0.000388   0.000461
              19
     1  Mn  -0.027094
     2  O    0.000566
     3  O    0.001980
     4  O   -0.000019
     5  H    0.000425
     6  H    0.000428
     7  H    0.000371
     8  H    0.000433
     9  H   -0.000055
    10  H    0.000097
    11  O    0.005463
    12  O    0.002076
    13  O    0.274105
    14  H    0.000377
    15  H    0.000392
    16  H    0.000439
    17  H    0.000388
    18  H    0.000461
    19  H    0.395139
          Atomic-Atomic Spin Densities.
               1          2          3          4          5          6
     1  Mn   5.186167  -0.054868  -0.054765  -0.054624   0.003433   0.003454
     2  O   -0.054868   0.088622  -0.005343  -0.005402  -0.004375  -0.004416
     3  O   -0.054765  -0.005343   0.088592  -0.005441   0.000018   0.000208
     4  O   -0.054624  -0.005402  -0.005441   0.088698   0.000556   0.000560
     5  H    0.003433  -0.004375   0.000018   0.000556   0.002961   0.001129
     6  H    0.003454  -0.004416   0.000208   0.000560   0.001129   0.002936
     7  H    0.003388   0.000537  -0.004334   0.000207  -0.000115  -0.000024
     8  H    0.003453   0.000549  -0.004466   0.000040  -0.000117  -0.000024
     9  H    0.003396   0.000204   0.000549  -0.004417  -0.000025  -0.000025
    10  H    0.003438   0.000042   0.000551  -0.004390  -0.000125  -0.000124
    11  O   -0.054868   0.003360  -0.005333  -0.005365  -0.000094  -0.000097
    12  O   -0.054765  -0.005333   0.003379  -0.005442   0.000207   0.000023
    13  O   -0.054624  -0.005365  -0.005442   0.003407   0.000524   0.000535
    14  H    0.003433  -0.000094   0.000207   0.000524   0.000000  -0.000012
    15  H    0.003454  -0.000097   0.000023   0.000535  -0.000012   0.000000
    16  H    0.003388   0.000539  -0.000093   0.000017  -0.000024  -0.000118
    17  H    0.003453   0.000549  -0.000099   0.000211  -0.000025  -0.000117
    18  H    0.003396   0.000012   0.000550  -0.000094  -0.000111  -0.000112
    19  H    0.003438   0.000218   0.000547  -0.000101  -0.000024  -0.000024
               7          8          9         10         11         12
     1  Mn   0.003388   0.003453   0.003396   0.003438  -0.054868  -0.054765
     2  O    0.000537   0.000549   0.000204   0.000042   0.003360  -0.005333
     3  O   -0.004334  -0.004466   0.000549   0.000551  -0.005333   0.003379
     4  O    0.000207   0.000040  -0.004417  -0.004390  -0.005365  -0.005442
     5  H   -0.000115  -0.000117  -0.000025  -0.000125  -0.000094   0.000207
     6  H   -0.000024  -0.000024  -0.000025  -0.000124  -0.000097   0.000023
     7  H    0.002980   0.001132  -0.000024  -0.000025   0.000539  -0.000093
     8  H    0.001132   0.002940  -0.000119  -0.000120   0.000549  -0.000099
     9  H   -0.000024  -0.000119   0.002971   0.001138   0.000012   0.000550
    10  H   -0.000025  -0.000120   0.001138   0.002846   0.000218   0.000547
    11  O    0.000539   0.000549   0.000012   0.000218   0.088622  -0.005343
    12  O   -0.000093  -0.000099   0.000550   0.000547  -0.005343   0.088592
    13  O    0.000017   0.000211  -0.000094  -0.000101  -0.005402  -0.005441
    14  H   -0.000024  -0.000025  -0.000111  -0.000024  -0.004375   0.000018
    15  H   -0.000118  -0.000117  -0.000112  -0.000024  -0.004416   0.000208
    16  H    0.000000  -0.000012  -0.000117  -0.000116   0.000537  -0.004334
    17  H   -0.000012   0.000000  -0.000024  -0.000024   0.000549  -0.004466
    18  H   -0.000117  -0.000024   0.000000  -0.000012   0.000204   0.000549
    19  H   -0.000116  -0.000024  -0.000012   0.000000   0.000042   0.000551
              13         14         15         16         17         18
     1  Mn  -0.054624   0.003433   0.003454   0.003388   0.003453   0.003396
     2  O   -0.005365  -0.000094  -0.000097   0.000539   0.000549   0.000012
     3  O   -0.005442   0.000207   0.000023  -0.000093  -0.000099   0.000550
     4  O    0.003407   0.000524   0.000535   0.000017   0.000211  -0.000094
     5  H    0.000524   0.000000  -0.000012  -0.000024  -0.000025  -0.000111
     6  H    0.000535  -0.000012   0.000000  -0.000118  -0.000117  -0.000112
     7  H    0.000017  -0.000024  -0.000118   0.000000  -0.000012  -0.000117
     8  H    0.000211  -0.000025  -0.000117  -0.000012   0.000000  -0.000024
     9  H   -0.000094  -0.000111  -0.000112  -0.000117  -0.000024   0.000000
    10  H   -0.000101  -0.000024  -0.000024  -0.000116  -0.000024  -0.000012
    11  O   -0.005402  -0.004375  -0.004416   0.000537   0.000549   0.000204
    12  O   -0.005441   0.000018   0.000208  -0.004334  -0.004466   0.000549
    13  O    0.088698   0.000556   0.000560   0.000207   0.000040  -0.004417
    14  H    0.000556   0.002961   0.001129  -0.000115  -0.000117  -0.000025
    15  H    0.000560   0.001129   0.002936  -0.000024  -0.000024  -0.000025
    16  H    0.000207  -0.000115  -0.000024   0.002980   0.001132  -0.000024
    17  H    0.000040  -0.000117  -0.000024   0.001132   0.002940  -0.000119
    18  H   -0.004417  -0.000025  -0.000025  -0.000024  -0.000119   0.002971
    19  H   -0.004390  -0.000125  -0.000124  -0.000025  -0.000120   0.001138
              19
     1  Mn   0.003438
     2  O    0.000218
     3  O    0.000547
     4  O   -0.000101
     5  H   -0.000024
     6  H   -0.000024
     7  H   -0.000116
     8  H   -0.000024
     9  H   -0.000012
    10  H    0.000000
    11  O    0.000042
    12  O    0.000551
    13  O   -0.004390
    14  H   -0.000125
    15  H   -0.000124
    16  H   -0.000025
    17  H   -0.000120
    18  H    0.001138
    19  H    0.002846
 Mulliken charges and spin densities:
               1          2
     1  Mn   0.612273   4.898777
     2  O   -0.456994   0.009338
     3  O   -0.456621   0.009305
     4  O   -0.456514   0.009479
     5  H    0.344091   0.003781
     6  H    0.343897   0.003751
     7  H    0.343912   0.003798
     8  H    0.343932   0.003726
     9  H    0.344132   0.003738
    10  H    0.344027   0.003694
    11  O   -0.456994   0.009338
    12  O   -0.456621   0.009305
    13  O   -0.456514   0.009479
    14  H    0.344091   0.003781
    15  H    0.343897   0.003751
    16  H    0.343912   0.003798
    17  H    0.343932   0.003726
    18  H    0.344132   0.003738
    19  H    0.344027   0.003694
 Sum of Mulliken charges =   2.00000   5.00000
 Mulliken charges and spin densities with hydrogens summed into heavy atoms:
               1          2
     1  Mn   0.612273   4.898777
     2  O    0.230994   0.016870
     3  O    0.231224   0.016829
     4  O    0.231645   0.016912
    11  O    0.230994   0.016870
    12  O    0.231224   0.016829
    13  O    0.231645   0.016912
 Electronic spatial extent (au):  <R**2>=           1208.1885
 Charge=              2.0000 electrons
 Dipole moment (field-independent basis, Debye):
    X=              0.0000    Y=              0.0000    Z=              0.0000  Tot=              0.0000
 Quadrupole moment (field-independent basis, Debye-Ang):
   XX=            -14.6478   YY=            -14.6157   ZZ=            -14.6217
   XY=             -0.0937   XZ=              0.1271   YZ=             -0.0050
 Traceless Quadrupole moment (field-independent basis, Debye-Ang):
   XX=             -0.0194   YY=              0.0127   ZZ=              0.0067
   XY=             -0.0937   XZ=              0.1271   YZ=             -0.0050
 Octapole moment (field-independent basis, Debye-Ang**2):
  XXX=              0.0000  YYY=              0.0000  ZZZ=              0.0000  XYY=              0.0000
  XXY=              0.0000  XXZ=              0.0000  XZZ=              0.0000  YZZ=              0.0000
  YYZ=              0.0000  XYZ=              0.0000
 Hexadecapole moment (field-independent basis, Debye-Ang**3):
 XXXX=           -109.1435 YYYY=           -109.0849 ZZZZ=           -108.8827 XXXY=              3.0524
 XXXZ=              1.8001 YYYX=             -2.8065 YYYZ=              0.3964 ZZZX=              0.9605
 ZZZY=             -0.1081 XXYY=           -111.0664 XXZZ=           -111.0086 YYZZ=           -111.1385
 XXYZ=              0.2453 YYXZ=              0.4024 ZZXY=              0.5487
 N-N= 6.290499776458D+02 E-N=-5.051649469511D+03  KE= 1.606546780459D+03
 Symmetry AG   KE= 9.938489455459D+02
 Symmetry AU   KE= 6.126978349134D+02
                          Isotropic Fermi Contact Couplings
        Atom                 a.u.       MegaHertz       Gauss      10(-4) cm-1
     1  Mn(55)            -1.60260    -354.28635    -126.41818    -118.17721
     2  O(17)              0.08721     -10.57376      -3.77298      -3.52703
     3  O(17)              0.08713     -10.56349      -3.76931      -3.52360
     4  O(17)              0.08686     -10.53035      -3.75749      -3.51255
     5  H(1)               0.00115       1.02960       0.36739       0.34344
     6  H(1)               0.00113       1.00700       0.35932       0.33590
     7  H(1)               0.00117       1.04770       0.37385       0.34948
     8  H(1)               0.00111       0.99525       0.35513       0.33198
     9  H(1)               0.00116       1.03751       0.37021       0.34607
    10  H(1)               0.00113       1.00784       0.35962       0.33618
    11  O(17)              0.08721     -10.57376      -3.77298      -3.52703
    12  O(17)              0.08713     -10.56349      -3.76931      -3.52360
    13  O(17)              0.08686     -10.53035      -3.75749      -3.51255
    14  H(1)               0.00115       1.02960       0.36739       0.34344
    15  H(1)               0.00113       1.00700       0.35932       0.33590
    16  H(1)               0.00117       1.04770       0.37385       0.34948
    17  H(1)               0.00111       0.99525       0.35513       0.33198
    18  H(1)               0.00116       1.03751       0.37021       0.34607
    19  H(1)               0.00113       1.00784       0.35962       0.33618
 --------------------------------------------------------
       Center         ----  Spin Dipole Couplings  ----
                      3XX-RR        3YY-RR        3ZZ-RR
 --------------------------------------------------------
     1   Atom        0.001013     -0.001070      0.000057
     2   Atom       -0.051512      0.166208     -0.114697
     3   Atom       -0.114732     -0.051471      0.166203
     4   Atom        0.166195     -0.114826     -0.051369
     5   Atom       -0.032835      0.053838     -0.021003
     6   Atom       -0.032978      0.053962     -0.020984
     7   Atom       -0.021119     -0.032771      0.053890
     8   Atom       -0.020941     -0.033135      0.054075
     9   Atom        0.053550     -0.020595     -0.032955
    10   Atom        0.054589     -0.021524     -0.033065
    11   Atom       -0.051512      0.166208     -0.114697
    12   Atom       -0.114732     -0.051471      0.166203
    13   Atom        0.166195     -0.114826     -0.051369
    14   Atom       -0.032835      0.053838     -0.021003
    15   Atom       -0.032978      0.053962     -0.020984
    16   Atom       -0.021119     -0.032771      0.053890
    17   Atom       -0.020941     -0.033135      0.054075
    18   Atom        0.053550     -0.020595     -0.032955
    19   Atom        0.054589     -0.021524     -0.033065
 --------------------------------------------------------
                        XY            XZ            YZ
 --------------------------------------------------------
     1   Atom       -0.001185     -0.000042     -0.000031
     2   Atom       -0.003456     -0.000096     -0.000245
     3   Atom       -0.001107     -0.001029     -0.000290
     4   Atom        0.002454     -0.002067     -0.000260
     5   Atom       -0.001108     -0.000327      0.026263
     6   Atom       -0.001195      0.000368     -0.026498
     7   Atom        0.000192      0.026027      0.000403
     8   Atom        0.000234     -0.026800     -0.000539
     9   Atom        0.027055      0.000250      0.000156
    10   Atom       -0.025893      0.000035     -0.000056
    11   Atom       -0.003456     -0.000096     -0.000245
    12   Atom       -0.001107     -0.001029     -0.000290
    13   Atom        0.002454     -0.002067     -0.000260
    14   Atom       -0.001108     -0.000327      0.026263
    15   Atom       -0.001195      0.000368     -0.026498
    16   Atom        0.000192      0.026027      0.000403
    17   Atom        0.000234     -0.026800     -0.000539
    18   Atom        0.027055      0.000250      0.000156
    19   Atom       -0.025893      0.000035     -0.000056
 --------------------------------------------------------


 ---------------------------------------------------------------------------------
              Anisotropic Spin Dipole Couplings in Principal Axis System
 ---------------------------------------------------------------------------------

       Atom             a.u.   MegaHertz   Gauss  10(-4) cm-1        Axes

              Baa    -0.0016    -0.212    -0.076    -0.071  0.4122  0.9107  0.0271
     1 Mn(55) Bbb     0.0001     0.008     0.003     0.003  0.0044 -0.0318  0.9995
              Bcc     0.0015     0.204     0.073     0.068  0.9111 -0.4119 -0.0171
 
              Baa    -0.1147     8.299     2.961     2.768  0.0016  0.0009  1.0000
     2 O(17)  Bbb    -0.0516     3.731     1.331     1.245  0.9999  0.0159 -0.0016
              Bcc     0.1663   -12.031    -4.293    -4.013 -0.0159  0.9999 -0.0009
 
              Baa    -0.1148     8.304     2.963     2.770  0.9998  0.0175  0.0037
     3 O(17)  Bbb    -0.0515     3.723     1.328     1.242 -0.0175  0.9998  0.0012
              Bcc     0.1662   -12.027    -4.291    -4.012 -0.0037 -0.0013  1.0000
 
              Baa    -0.1148     8.310     2.965     2.772 -0.0087  1.0000  0.0038
     4 O(17)  Bbb    -0.0514     3.718     1.327     1.240  0.0095 -0.0037  0.9999
              Bcc     0.1662   -12.029    -4.292    -4.012  0.9999  0.0087 -0.0095
 
              Baa    -0.0328   -17.527    -6.254    -5.846  0.9999  0.0134 -0.0021
     5 H(1)   Bbb    -0.0293   -15.633    -5.578    -5.215  0.0061 -0.3011  0.9536
              Bcc     0.0621    33.160    11.832    11.061 -0.0122  0.9535  0.3012
 
              Baa    -0.0330   -17.604    -6.282    -5.872  0.9999  0.0134 -0.0010
     6 H(1)   Bbb    -0.0294   -15.690    -5.598    -5.234 -0.0031  0.3029  0.9530
              Bcc     0.0624    33.294    11.880    11.106 -0.0131  0.9529 -0.3029
 
              Baa    -0.0328   -17.487    -6.240    -5.833 -0.0185  0.9998  0.0009
     7 H(1)   Bbb    -0.0293   -15.614    -5.572    -5.208  0.9542  0.0179 -0.2987
              Bcc     0.0620    33.101    11.811    11.041  0.2987  0.0047  0.9543
 
              Baa    -0.0331   -17.681    -6.309    -5.898 -0.0172  0.9999  0.0009
     8 H(1)   Bbb    -0.0295   -15.756    -5.622    -5.256  0.9521  0.0161  0.3053
              Bcc     0.0627    33.437    11.931    11.153 -0.3052 -0.0061  0.9523
 
              Baa    -0.0330   -17.585    -6.275    -5.866  0.0033 -0.0198  0.9998
     9 H(1)   Bbb    -0.0294   -15.695    -5.600    -5.235 -0.3100  0.9505  0.0199
              Bcc     0.0624    33.280    11.875    11.101  0.9507  0.3100  0.0030
 
              Baa    -0.0331   -17.642    -6.295    -5.885  0.0031  0.0117  0.9999
    10 H(1)   Bbb    -0.0295   -15.738    -5.616    -5.250  0.2943  0.9556 -0.0121
              Bcc     0.0626    33.380    11.911    11.134  0.9557 -0.2943  0.0005
 
              Baa    -0.1147     8.299     2.961     2.768  0.0016  0.0009  1.0000
    11 O(17)  Bbb    -0.0516     3.731     1.331     1.245  0.9999  0.0159 -0.0016
              Bcc     0.1663   -12.031    -4.293    -4.013 -0.0159  0.9999 -0.0009
 
              Baa    -0.1148     8.304     2.963     2.770  0.9998  0.0175  0.0037
    12 O(17)  Bbb    -0.0515     3.723     1.328     1.242 -0.0175  0.9998  0.0012
              Bcc     0.1662   -12.027    -4.291    -4.012 -0.0037 -0.0013  1.0000
 
              Baa    -0.1148     8.310     2.965     2.772 -0.0087  1.0000  0.0038
    13 O(17)  Bbb    -0.0514     3.718     1.327     1.240  0.0095 -0.0037  0.9999
              Bcc     0.1662   -12.029    -4.292    -4.012  0.9999  0.0087 -0.0095
 
              Baa    -0.0328   -17.527    -6.254    -5.846  0.9999  0.0134 -0.0021
    14 H(1)   Bbb    -0.0293   -15.633    -5.578    -5.215  0.0061 -0.3011  0.9536
              Bcc     0.0621    33.160    11.832    11.061 -0.0122  0.9535  0.3012
 
              Baa    -0.0330   -17.604    -6.282    -5.872  0.9999  0.0134 -0.0010
    15 H(1)   Bbb    -0.0294   -15.690    -5.598    -5.234 -0.0031  0.3029  0.9530
              Bcc     0.0624    33.294    11.880    11.106 -0.0131  0.9529 -0.3029
 
              Baa    -0.0328   -17.487    -6.240    -5.833 -0.0185  0.9998  0.0009
    16 H(1)   Bbb    -0.0293   -15.614    -5.572    -5.208  0.9542  0.0179 -0.2987
              Bcc     0.0620    33.101    11.811    11.041  0.2987  0.0047  0.9543
 
              Baa    -0.0331   -17.681    -6.309    -5.898 -0.0172  0.9999  0.0009
    17 H(1)   Bbb    -0.0295   -15.756    -5.622    -5.256  0.9521  0.0161  0.3053
              Bcc     0.0627    33.437    11.931    11.153 -0.3052 -0.0061  0.9523
 
              Baa    -0.0330   -17.585    -6.275    -5.866  0.0033 -0.0198  0.9998
    18 H(1)   Bbb    -0.0294   -15.695    -5.600    -5.235 -0.3100  0.9505  0.0199
              Bcc     0.0624    33.280    11.875    11.101  0.9507  0.3100  0.0030
 
              Baa    -0.0331   -17.642    -6.295    -5.885  0.0031  0.0117  0.9999
    19 H(1)   Bbb    -0.0295   -15.738    -5.616    -5.250  0.2943  0.9556 -0.0121
              Bcc     0.0626    33.380    11.911    11.134  0.9557 -0.2943  0.0005
 

 ---------------------------------------------------------------------------------

 Calling FoFJK, ICntrl=      2127 FMM=F ISym2X=1 I1Cent= 0 IOpClX= 1 NMat=1 NMatS=1 NMatT=0.
 ***** Axes restored to original set *****
 -------------------------------------------------------------------
 Center     Atomic                   Forces (Hartrees/Bohr)
 Number     Number              X              Y              Z
 -------------------------------------------------------------------
      1       25           0.000000000    0.000000000    0.000000000
      2        8           0.000107580   -0.000262909   -0.000200689
      3        8          -0.000115593   -0.000027578   -0.000070600
      4        8          -0.000121027    0.000025552   -0.000104066
      5        1           0.000014519    0.000019082    0.000184934
      6        1           0.000037050    0.000000387   -0.000025954
      7        1           0.000168493    0.000004066   -0.000076996
      8        1          -0.000149936    0.000014514    0.000062722
      9        1           0.000022221   -0.000064998    0.000060904
     10        1          -0.000007433    0.000076376    0.000042998
     11        8          -0.000107580    0.000262909    0.000200689
     12        8           0.000115593    0.000027578    0.000070600
     13        8           0.000121027   -0.000025552    0.000104066
     14        1          -0.000014519   -0.000019082   -0.000184934
     15        1          -0.000037050   -0.000000387    0.000025954
     16        1          -0.000168493   -0.000004066    0.000076996
     17        1           0.000149936   -0.000014514   -0.000062722
     18        1          -0.000022221    0.000064998   -0.000060904
     19        1           0.000007433   -0.000076376   -0.000042998
 -------------------------------------------------------------------
 Cartesian Forces:  Max     0.000262909 RMS     0.000099146

 GradGradGradGradGradGradGradGradGradGradGradGradGradGradGradGradGradGrad
 Berny optimization.
 FormGI is forming the generalized inverse of G from B-inverse, IUseBI=4.
 Internal  Forces:  Max     0.000245491 RMS     0.000066645
 Search for a local minimum.
 Step number   1 out of a maximum of  114
 All quantities printed in internal units (Hartrees-Bohrs-Radians)
 Mixed Optimization -- En-DIIS/RFO-DIIS
 Second derivative matrix not updated -- first step.
 ITU=  0
     Eigenvalues ---    0.00230   0.00230   0.00230   0.00230   0.00230
     Eigenvalues ---    0.00230   0.00230   0.00230   0.00230   0.00230
     Eigenvalues ---    0.00231   0.00231   0.05461   0.05462   0.05464
     Eigenvalues ---    0.06422   0.06423   0.06423   0.09114   0.09114
     Eigenvalues ---    0.09143   0.09143   0.09179   0.09179   0.12540
     Eigenvalues ---    0.12624   0.12681   0.16000   0.16000   0.16000
     Eigenvalues ---    0.16000   0.16000   0.16000   0.16000   0.16000
     Eigenvalues ---    0.16000   0.16000   0.16000   0.16000   0.54553
     Eigenvalues ---    0.54553   0.54554   0.54554   0.54566   0.54566
     Eigenvalues ---    0.54572   0.54572   0.54577   0.54577   0.54587
     Eigenvalues ---    0.54587
 RFO step:  Lambda=-5.53766693D-06 EMin= 2.30000000D-03
 Linear search not attempted -- first point.
 Iteration  1 RMS(Cart)=  0.00181981 RMS(Int)=  0.00000581
 Iteration  2 RMS(Cart)=  0.00000468 RMS(Int)=  0.00000354
 Iteration  3 RMS(Cart)=  0.00000000 RMS(Int)=  0.00000354
 ClnCor:  largest displacement from symmetrization is 1.23D-08 for atom    18.
 Variable       Old X    -DE/DX   Delta X   Delta X   Delta X     New X
                                 (Linear)    (Quad)   (Total)
    R1        4.14209  -0.00025   0.00000  -0.00269  -0.00269   4.13939
    R2        4.13925  -0.00008   0.00000  -0.00093  -0.00093   4.13833
    R3        4.13581   0.00011   0.00000   0.00115   0.00115   4.13696
    R4        4.14209  -0.00025   0.00000  -0.00269  -0.00269   4.13939
    R5        4.13925  -0.00008   0.00000  -0.00093  -0.00093   4.13833
    R6        4.13581   0.00011   0.00000   0.00115   0.00115   4.13696
    R7        1.82201   0.00016   0.00000   0.00029   0.00029   1.82231
    R8        1.82231   0.00002   0.00000   0.00004   0.00004   1.82235
    R9        1.82210   0.00009   0.00000   0.00016   0.00016   1.82227
   R10        1.82214   0.00016   0.00000   0.00029   0.00029   1.82243
   R11        1.82231   0.00006   0.00000   0.00010   0.00010   1.82242
   R12        1.82220   0.00005   0.00000   0.00009   0.00009   1.82229
   R13        1.82201   0.00016   0.00000   0.00029   0.00029   1.82231
   R14        1.82231   0.00002   0.00000   0.00004   0.00004   1.82235
   R15        1.82210   0.00009   0.00000   0.00016   0.00016   1.82227
   R16        1.82214   0.00016   0.00000   0.00029   0.00029   1.82243
   R17        1.82231   0.00006   0.00000   0.00010   0.00010   1.82242
   R18        1.82220   0.00005   0.00000   0.00009   0.00009   1.82229
    A1        1.57152   0.00000   0.00000   0.00004   0.00004   1.57156
    A2        1.56686   0.00007   0.00000   0.00059   0.00059   1.56746
    A3        1.57007   0.00000   0.00000  -0.00004  -0.00004   1.57003
    A4        1.57473  -0.00007   0.00000  -0.00059  -0.00059   1.57414
    A5        1.56666  -0.00004   0.00000  -0.00028  -0.00028   1.56638
    A6        1.57007   0.00000   0.00000  -0.00004  -0.00004   1.57003
    A7        1.57493   0.00004   0.00000   0.00028   0.00028   1.57521
    A8        1.57473  -0.00007   0.00000  -0.00059  -0.00059   1.57414
    A9        1.57493   0.00004   0.00000   0.00028   0.00028   1.57521
   A10        1.57152   0.00000   0.00000   0.00004   0.00004   1.57156
   A11        1.56686   0.00007   0.00000   0.00059   0.00059   1.56746
   A12        1.56666  -0.00004   0.00000  -0.00028  -0.00028   1.56638
   A13        2.21272  -0.00011   0.00000  -0.00068  -0.00068   2.21204
   A14        2.20495   0.00004   0.00000   0.00026   0.00026   2.20521
   A15        1.86551   0.00007   0.00000   0.00042   0.00042   1.86593
   A16        2.21859  -0.00018   0.00000  -0.00113  -0.00113   2.21746
   A17        2.19959   0.00006   0.00000   0.00037   0.00037   2.19996
   A18        1.86500   0.00012   0.00000   0.00076   0.00076   1.86576
   A19        2.21134  -0.00009   0.00000  -0.00046  -0.00047   2.21086
   A20        2.20585   0.00003   0.00000   0.00027   0.00026   2.20611
   A21        1.86563   0.00006   0.00000   0.00045   0.00043   1.86606
   A22        2.21272  -0.00011   0.00000  -0.00068  -0.00068   2.21204
   A23        2.20495   0.00004   0.00000   0.00026   0.00026   2.20521
   A24        1.86551   0.00007   0.00000   0.00042   0.00042   1.86593
   A25        2.21859  -0.00018   0.00000  -0.00113  -0.00113   2.21746
   A26        2.19959   0.00006   0.00000   0.00037   0.00037   2.19996
   A27        1.86500   0.00012   0.00000   0.00076   0.00076   1.86576
   A28        2.21134  -0.00009   0.00000  -0.00046  -0.00047   2.21086
   A29        2.20585   0.00003   0.00000   0.00027   0.00026   2.20611
   A30        1.86563   0.00006   0.00000   0.00045   0.00043   1.86606
   A31        3.14159   0.00000   0.00000   0.00000   0.00000   3.14159
   A32        3.14159   0.00000   0.00000   0.00000   0.00000   3.14159
   A33        3.14159   0.00000   0.00000   0.00000   0.00000   3.14159
   A34        3.14159   0.00000   0.00000   0.00000   0.00000   3.14159
   A35        3.14159   0.00000   0.00000   0.00000   0.00000   3.14159
   A36        3.14159   0.00000   0.00000   0.00000   0.00000   3.14159
    D1        0.00167   0.00001   0.00000  -0.00187  -0.00187  -0.00020
    D2       -3.13807   0.00001   0.00000  -0.00113  -0.00113  -3.13920
    D3        1.56833  -0.00002   0.00000  -0.00215  -0.00215   1.56618
    D4       -1.57141  -0.00002   0.00000  -0.00141  -0.00141  -1.57282
    D5       -3.13992   0.00001   0.00000  -0.00187  -0.00187   3.14139
    D6        0.00353   0.00001   0.00000  -0.00113  -0.00113   0.00239
    D7       -1.57327  -0.00002   0.00000  -0.00215  -0.00215  -1.57542
    D8        1.57018  -0.00002   0.00000  -0.00141  -0.00141   1.56877
    D9        3.14159   0.00000   0.00000   0.00000   0.00000   3.14159
   D10       -0.00186   0.00000   0.00000  -0.00074  -0.00074  -0.00259
   D11        0.00186   0.00000   0.00000   0.00074   0.00074   0.00259
   D12        3.14159   0.00000   0.00000   0.00000   0.00000   3.14159
   D13       -1.56525   0.00004   0.00000   0.00110   0.00110  -1.56415
   D14        1.57525   0.00004   0.00000  -0.00050  -0.00050   1.57474
   D15       -3.13211  -0.00004   0.00000   0.00051   0.00051  -3.13161
   D16        0.00839  -0.00004   0.00000  -0.00110  -0.00110   0.00729
   D17        1.57634   0.00004   0.00000   0.00110   0.00110   1.57744
   D18       -1.56634   0.00004   0.00000  -0.00050  -0.00050  -1.56685
   D19        0.00948  -0.00004   0.00000   0.00051   0.00051   0.00999
   D20       -3.13321  -0.00004   0.00000  -0.00110  -0.00110  -3.13430
   D21        3.14159   0.00000   0.00000   0.00000   0.00000   3.14159
   D22        0.00109   0.00000   0.00000   0.00160   0.00160   0.00270
   D23       -0.00109   0.00000   0.00000  -0.00160  -0.00160  -0.00270
   D24        3.14159   0.00000   0.00000   0.00000   0.00000   3.14159
   D25        3.12104   0.00001   0.00000   0.00731   0.00731   3.12835
   D26        0.01244  -0.00001   0.00000  -0.00442  -0.00442   0.00802
   D27       -1.59060   0.00002   0.00000   0.00734   0.00734  -1.58326
   D28        1.58398  -0.00001   0.00000  -0.00438  -0.00438   1.57959
   D29       -0.02055   0.00001   0.00000   0.00731   0.00731  -0.01324
   D30       -3.12915  -0.00001   0.00000  -0.00442  -0.00442  -3.13357
   D31        1.55099   0.00002   0.00000   0.00734   0.00734   1.55833
   D32       -1.55761  -0.00001   0.00000  -0.00438  -0.00438  -1.56200
   D33        3.14159   0.00000   0.00000   0.00000   0.00000   3.14159
   D34       -0.03299   0.00003   0.00000   0.01173   0.01173  -0.02126
   D35        0.03299  -0.00003   0.00000  -0.01173  -0.01173   0.02126
   D36        3.14159   0.00000   0.00000   0.00000   0.00000   3.14159
   D37        3.13992  -0.00001   0.00000   0.00187   0.00187  -3.14139
   D38       -0.00353  -0.00001   0.00000   0.00113   0.00113  -0.00239
   D39        1.57327   0.00002   0.00000   0.00215   0.00215   1.57542
   D40       -1.57018   0.00002   0.00000   0.00141   0.00141  -1.56877
   D41       -0.00167  -0.00001   0.00000   0.00187   0.00187   0.00020
   D42        3.13807  -0.00001   0.00000   0.00113   0.00113   3.13920
   D43       -1.56833   0.00002   0.00000   0.00215   0.00215  -1.56618
   D44        1.57141   0.00002   0.00000   0.00141   0.00141   1.57282
   D45       -1.57634  -0.00004   0.00000  -0.00110  -0.00110  -1.57744
   D46        1.56634  -0.00004   0.00000   0.00050   0.00050   1.56685
   D47       -0.00948   0.00004   0.00000  -0.00051  -0.00051  -0.00999
   D48        3.13321   0.00004   0.00000   0.00110   0.00110   3.13430
   D49        1.56525  -0.00004   0.00000  -0.00110  -0.00110   1.56415
   D50       -1.57525  -0.00004   0.00000   0.00050   0.00050  -1.57474
   D51        3.13211   0.00004   0.00000  -0.00051  -0.00051   3.13161
   D52       -0.00839   0.00004   0.00000   0.00110   0.00110  -0.00729
   D53        0.02055  -0.00001   0.00000  -0.00731  -0.00731   0.01324
   D54        3.12915   0.00001   0.00000   0.00442   0.00442   3.13357
   D55       -1.55099  -0.00002   0.00000  -0.00734  -0.00734  -1.55833
   D56        1.55761   0.00001   0.00000   0.00438   0.00438   1.56200
   D57       -3.12104  -0.00001   0.00000  -0.00731  -0.00731  -3.12835
   D58       -0.01244   0.00001   0.00000   0.00442   0.00442  -0.00802
   D59        1.59060  -0.00002   0.00000  -0.00734  -0.00734   1.58326
   D60       -1.58398   0.00001   0.00000   0.00438   0.00438  -1.57959
[...]
     9  H   -0.000025   0.000382   0.000379   0.000378   0.000435   0.000096
    10  H   -0.000022   0.000434   0.000436   0.000381   0.000434  -0.000055
    11  O   -0.046386   0.274446   0.274449   0.002022   0.001975   0.000563
    12  O   -0.046712   0.005319   0.000548   0.274476   0.274431   0.002008
    13  O    7.961250   0.001967   0.001959   0.000547   0.005340   0.274285
    14  H    0.001967   0.394775   0.000384   0.000373   0.000389   0.000435
    15  H    0.001959   0.000384   0.394764   0.000439   0.000431   0.000433
    16  H    0.000547   0.000373   0.000439   0.394759   0.000361   0.000435
    17  H    0.005340   0.000389   0.000431   0.000361   0.394755   0.000379
    18  H    0.274285   0.000435   0.000433   0.000435   0.000379   0.394865
    19  H    0.274606   0.000378   0.000381   0.000434   0.000381   0.000371
              19
     1  Mn  -0.026767
     2  O    0.000533
     3  O    0.001995
     4  O   -0.000022
     5  H    0.000434
     6  H    0.000436
     7  H    0.000381
     8  H    0.000434
     9  H   -0.000055
    10  H    0.000097
    11  O    0.005209
    12  O    0.002008
    13  O    0.274606
    14  H    0.000378
    15  H    0.000381
    16  H    0.000434
    17  H    0.000381
    18  H    0.000371
    19  H    0.394763
          Atomic-Atomic Spin Densities.
               1          2          3          4          5          6
     1  Mn   5.186565  -0.054902  -0.054839  -0.054811   0.003435   0.003433
     2  O   -0.054902   0.088943  -0.005425  -0.005418  -0.004424  -0.004422
     3  O   -0.054839  -0.005425   0.088805  -0.005399   0.000025   0.000210
     4  O   -0.054811  -0.005418  -0.005399   0.088783   0.000558   0.000556
     5  H    0.003435  -0.004424   0.000025   0.000558   0.002964   0.001136
     6  H    0.003433  -0.004422   0.000210   0.000556   0.001136   0.002965
     7  H    0.003429   0.000552  -0.004408   0.000210  -0.000119  -0.000025
     8  H    0.003426   0.000545  -0.004424   0.000024  -0.000116  -0.000024
     9  H    0.003423   0.000204   0.000549  -0.004462  -0.000024  -0.000024
    10  H    0.003440   0.000031   0.000543  -0.004352  -0.000122  -0.000121
    11  O   -0.054902   0.003404  -0.005425  -0.005398  -0.000097  -0.000097
    12  O   -0.054839  -0.005425   0.003397  -0.005401   0.000210   0.000025
    13  O   -0.054811  -0.005398  -0.005401   0.003397   0.000538   0.000539
    14  H    0.003435  -0.000097   0.000210   0.000538   0.000000  -0.000012
    15  H    0.003433  -0.000097   0.000025   0.000539  -0.000012   0.000000
    16  H    0.003429   0.000544  -0.000097   0.000026  -0.000025  -0.000116
    17  H    0.003426   0.000552  -0.000097   0.000208  -0.000024  -0.000119
    18  H    0.003423   0.000017   0.000551  -0.000096  -0.000113  -0.000114
    19  H    0.003440   0.000216   0.000546  -0.000098  -0.000025  -0.000025
               7          8          9         10         11         12
     1  Mn   0.003429   0.003426   0.003423   0.003440  -0.054902  -0.054839
     2  O    0.000552   0.000545   0.000204   0.000031   0.003404  -0.005425
     3  O   -0.004408  -0.004424   0.000549   0.000543  -0.005425   0.003397
     4  O    0.000210   0.000024  -0.004462  -0.004352  -0.005398  -0.005401
     5  H   -0.000119  -0.000116  -0.000024  -0.000122  -0.000097   0.000210
     6  H   -0.000025  -0.000024  -0.000024  -0.000121  -0.000097   0.000025
     7  H    0.002957   0.001135  -0.000024  -0.000025   0.000544  -0.000097
     8  H    0.001135   0.002972  -0.000117  -0.000117   0.000552  -0.000097
     9  H   -0.000024  -0.000117   0.002974   0.001135   0.000017   0.000551
    10  H   -0.000025  -0.000117   0.001135   0.002879   0.000216   0.000546
    11  O    0.000544   0.000552   0.000017   0.000216   0.088943  -0.005425
    12  O   -0.000097  -0.000097   0.000551   0.000546  -0.005425   0.088805
    13  O    0.000026   0.000208  -0.000096  -0.000098  -0.005418  -0.005399
    14  H   -0.000025  -0.000024  -0.000113  -0.000025  -0.004424   0.000025
    15  H   -0.000116  -0.000119  -0.000114  -0.000025  -0.004422   0.000210
    16  H    0.000000  -0.000012  -0.000118  -0.000119   0.000552  -0.004408
    17  H   -0.000012   0.000000  -0.000024  -0.000025   0.000545  -0.004424
    18  H   -0.000118  -0.000024   0.000000  -0.000012   0.000204   0.000549
    19  H   -0.000119  -0.000025  -0.000012   0.000000   0.000031   0.000543
              13         14         15         16         17         18
     1  Mn  -0.054811   0.003435   0.003433   0.003429   0.003426   0.003423
     2  O   -0.005398  -0.000097  -0.000097   0.000544   0.000552   0.000017
     3  O   -0.005401   0.000210   0.000025  -0.000097  -0.000097   0.000551
     4  O    0.003397   0.000538   0.000539   0.000026   0.000208  -0.000096
     5  H    0.000538   0.000000  -0.000012  -0.000025  -0.000024  -0.000113
     6  H    0.000539  -0.000012   0.000000  -0.000116  -0.000119  -0.000114
     7  H    0.000026  -0.000025  -0.000116   0.000000  -0.000012  -0.000118
     8  H    0.000208  -0.000024  -0.000119  -0.000012   0.000000  -0.000024
     9  H   -0.000096  -0.000113  -0.000114  -0.000118  -0.000024   0.000000
    10  H   -0.000098  -0.000025  -0.000025  -0.000119  -0.000025  -0.000012
    11  O   -0.005418  -0.004424  -0.004422   0.000552   0.000545   0.000204
    12  O   -0.005399   0.000025   0.000210  -0.004408  -0.004424   0.000549
    13  O    0.088783   0.000558   0.000556   0.000210   0.000024  -0.004462
    14  H    0.000558   0.002964   0.001136  -0.000119  -0.000116  -0.000024
    15  H    0.000556   0.001136   0.002965  -0.000025  -0.000024  -0.000024
    16  H    0.000210  -0.000119  -0.000025   0.002957   0.001135  -0.000024
    17  H    0.000024  -0.000116  -0.000024   0.001135   0.002972  -0.000117
    18  H   -0.004462  -0.000024  -0.000024  -0.000024  -0.000117   0.002974
    19  H   -0.004352  -0.000122  -0.000121  -0.000025  -0.000117   0.001135
              19
     1  Mn   0.003440
     2  O    0.000216
     3  O    0.000546
     4  O   -0.000098
     5  H   -0.000025
     6  H   -0.000025
     7  H   -0.000119
     8  H   -0.000025
     9  H   -0.000012
    10  H    0.000000
    11  O    0.000031
    12  O    0.000543
    13  O   -0.004352
    14  H   -0.000122
    15  H   -0.000121
    16  H   -0.000025
    17  H   -0.000117
    18  H    0.001135
    19  H    0.002879
 Mulliken charges and spin densities:
               1          2
     1  Mn   0.612360   4.898629
     2  O   -0.456911   0.009401
     3  O   -0.457004   0.009345
     4  O   -0.456914   0.009405
     5  H    0.344114   0.003764
     6  H    0.344123   0.003764
     7  H    0.344107   0.003768
     8  H    0.344146   0.003764
     9  H    0.344155   0.003724
    10  H    0.344005   0.003750
    11  O   -0.456911   0.009401
    12  O   -0.457004   0.009345
    13  O   -0.456914   0.009405
    14  H    0.344114   0.003764
    15  H    0.344123   0.003764
    16  H    0.344107   0.003768
    17  H    0.344146   0.003764
    18  H    0.344155   0.003724
    19  H    0.344005   0.003750
 Sum of Mulliken charges =   2.00000   5.00000
 Mulliken charges and spin densities with hydrogens summed into heavy atoms:
               1          2
     1  Mn   0.612360   4.898629
     2  O    0.231325   0.016929
     3  O    0.231249   0.016877
     4  O    0.231246   0.016879
    11  O    0.231325   0.016929
    12  O    0.231249   0.016877
    13  O    0.231246   0.016879
 Electronic spatial extent (au):  <R**2>=           1207.7135
 Charge=              2.0000 electrons
 Dipole moment (field-independent basis, Debye):
    X=              0.0000    Y=              0.0000    Z=              0.0000  Tot=              0.0000
 Quadrupole moment (field-independent basis, Debye-Ang):
   XX=            -14.6379   YY=            -14.6408   ZZ=            -14.6386
   XY=             -0.0395   XZ=              0.0062   YZ=             -0.0017
 Traceless Quadrupole moment (field-independent basis, Debye-Ang):
   XX=              0.0012   YY=             -0.0017   ZZ=              0.0005
   XY=             -0.0395   XZ=              0.0062   YZ=             -0.0017
 Octapole moment (field-independent basis, Debye-Ang**2):
  XXX=              0.0000  YYY=              0.0000  ZZZ=              0.0000  XYY=              0.0000
  XXY=              0.0000  XXZ=              0.0000  XZZ=              0.0000  YZZ=              0.0000
  YYZ=              0.0000  XYZ=              0.0000
 Hexadecapole moment (field-independent basis, Debye-Ang**3):
 XXXX=           -109.1932 YYYY=           -109.2707 ZZZZ=           -109.1639 XXXY=              1.6937
 XXXZ=              0.5450 YYYX=             -3.4553 YYYZ=              0.0339 ZZZX=             -0.2373
 ZZZY=             -0.0167 XXYY=           -110.9606 XXZZ=           -111.0328 YYZZ=           -111.0145
 XXYZ=              0.0052 YYXZ=             -0.0215 ZZXY=              0.1383
 N-N= 6.291681638602D+02 E-N=-5.051888242004D+03  KE= 1.606546661979D+03
 Symmetry AG   KE= 9.938488455450D+02
 Symmetry AU   KE= 6.126978164343D+02
                          Isotropic Fermi Contact Couplings
        Atom                 a.u.       MegaHertz       Gauss      10(-4) cm-1
     1  Mn(55)            -1.60267    -354.30300    -126.42412    -118.18276
     2  O(17)              0.08720     -10.57245      -3.77251      -3.52659
     3  O(17)              0.08717     -10.56840      -3.77107      -3.52524
     4  O(17)              0.08708     -10.55787      -3.76731      -3.52173
     5  H(1)               0.00114       1.02248       0.36485       0.34106
     6  H(1)               0.00114       1.02300       0.36503       0.34124
     7  H(1)               0.00114       1.02285       0.36498       0.34119
     8  H(1)               0.00114       1.02234       0.36480       0.34102
     9  H(1)               0.00114       1.01804       0.36326       0.33958
    10  H(1)               0.00115       1.02409       0.36542       0.34160
    11  O(17)              0.08720     -10.57245      -3.77251      -3.52659
    12  O(17)              0.08717     -10.56840      -3.77107      -3.52524
    13  O(17)              0.08708     -10.55787      -3.76731      -3.52173
    14  H(1)               0.00114       1.02248       0.36485       0.34106
    15  H(1)               0.00114       1.02300       0.36503       0.34124
    16  H(1)               0.00114       1.02285       0.36498       0.34119
    17  H(1)               0.00114       1.02234       0.36480       0.34102
    18  H(1)               0.00114       1.01804       0.36326       0.33958
    19  H(1)               0.00115       1.02409       0.36542       0.34160
 --------------------------------------------------------
       Center         ----  Spin Dipole Couplings  ----
                      3XX-RR        3YY-RR        3ZZ-RR
 --------------------------------------------------------
     1   Atom        0.000019      0.000036     -0.000055
     2   Atom       -0.051476      0.166385     -0.114909
     3   Atom       -0.114841     -0.051505      0.166346
     4   Atom        0.166254     -0.114776     -0.051477
     5   Atom       -0.032978      0.054005     -0.021027
     6   Atom       -0.032977      0.054012     -0.021035
     7   Atom       -0.021120     -0.032969      0.054089
     8   Atom       -0.020945     -0.032989      0.053935
     9   Atom        0.053494     -0.020443     -0.033051
    10   Atom        0.054498     -0.021595     -0.032903
    11   Atom       -0.051476      0.166385     -0.114909
    12   Atom       -0.114841     -0.051505      0.166346
    13   Atom        0.166254     -0.114776     -0.051477
    14   Atom       -0.032978      0.054005     -0.021027
    15   Atom       -0.032977      0.054012     -0.021035
    16   Atom       -0.021120     -0.032969      0.054089
    17   Atom       -0.020945     -0.032989      0.053935
    18   Atom        0.053494     -0.020443     -0.033051
    19   Atom        0.054498     -0.021595     -0.032903
 --------------------------------------------------------
                        XY            XZ            YZ
 --------------------------------------------------------
     1   Atom       -0.000450      0.000048     -0.000026
     2   Atom       -0.001293      0.000159      0.000034
     3   Atom       -0.001015     -0.000515     -0.000068
     4   Atom        0.003409      0.000144     -0.000001
     5   Atom       -0.001019     -0.000357      0.026467
     6   Atom       -0.000881      0.000294     -0.026449
     7   Atom        0.000192      0.026312      0.000421
     8   Atom        0.000202     -0.026588     -0.000453
     9   Atom        0.027361      0.000140      0.000051
    10   Atom       -0.025522      0.000140     -0.000047
    11   Atom       -0.001293      0.000159      0.000034
    12   Atom       -0.001015     -0.000515     -0.000068
    13   Atom        0.003409      0.000144     -0.000001
    14   Atom       -0.001019     -0.000357      0.026467
    15   Atom       -0.000881      0.000294     -0.026449
    16   Atom        0.000192      0.026312      0.000421
    17   Atom        0.000202     -0.026588     -0.000453
    18   Atom        0.027361      0.000140      0.000051
    19   Atom       -0.025522      0.000140     -0.000047
 --------------------------------------------------------


 ---------------------------------------------------------------------------------
              Anisotropic Spin Dipole Couplings in Principal Axis System
 ---------------------------------------------------------------------------------

       Atom             a.u.   MegaHertz   Gauss  10(-4) cm-1        Axes

              Baa    -0.0004    -0.056    -0.020    -0.019  0.7147  0.6980 -0.0441
     1 Mn(55) Bbb    -0.0001    -0.008    -0.003    -0.003 -0.0366  0.1004  0.9943
              Bcc     0.0005     0.064     0.023     0.021 -0.6984  0.7090 -0.0973
 
              Baa    -0.1149     8.315     2.967     2.774 -0.0025 -0.0001  1.0000
     2 O(17)  Bbb    -0.0515     3.725     1.329     1.243  1.0000  0.0059  0.0025
              Bcc     0.1664   -12.040    -4.296    -4.016 -0.0059  1.0000  0.0001
 
              Baa    -0.1149     8.311     2.966     2.772  0.9999  0.0160  0.0018
     3 O(17)  Bbb    -0.0515     3.726     1.329     1.243 -0.0160  0.9999  0.0003
              Bcc     0.1663   -12.037    -4.295    -4.015 -0.0018 -0.0003  1.0000
 
              Baa    -0.1148     8.308     2.965     2.771 -0.0121  0.9999  0.0000
     4 O(17)  Bbb    -0.0515     3.725     1.329     1.242 -0.0007 -0.0001  1.0000
              Bcc     0.1663   -12.033    -4.294    -4.014  0.9999  0.0121  0.0007
 
              Baa    -0.0330   -17.602    -6.281    -5.871  0.9999  0.0081  0.0119
     5 H(1)   Bbb    -0.0294   -15.699    -5.602    -5.237 -0.0089 -0.3025  0.9531
              Bcc     0.0624    33.301    11.883    11.108 -0.0113  0.9531  0.3024
 
              Baa    -0.0330   -17.600    -6.280    -5.871  0.9999  0.0081 -0.0068
     6 H(1)   Bbb    -0.0294   -15.697    -5.601    -5.236  0.0040  0.3022  0.9532
              Bcc     0.0624    33.297    11.881    11.107 -0.0097  0.9532 -0.3022
 
              Baa    -0.0330   -17.592    -6.277    -5.868 -0.0165  0.9999  0.0002
     7 H(1)   Bbb    -0.0294   -15.692    -5.599    -5.234  0.9536  0.0158 -0.3006
              Bcc     0.0624    33.284    11.877    11.102  0.3005  0.0048  0.9538
 
              Baa    -0.0330   -17.603    -6.281    -5.872 -0.0162  0.9999  0.0002
     8 H(1)   Bbb    -0.0294   -15.700    -5.602    -5.237  0.9526  0.0154  0.3039
              Bcc     0.0624    33.303    11.883    11.109 -0.3039 -0.0052  0.9527
 
              Baa    -0.0331   -17.635    -6.293    -5.882 -0.0011 -0.0017  1.0000
     9 H(1)   Bbb    -0.0295   -15.722    -5.610    -5.244 -0.3132  0.9497  0.0013
              Bcc     0.0625    33.357    11.903    11.127  0.9497  0.3132  0.0016
 
              Baa    -0.0329   -17.555    -6.264    -5.856 -0.0011  0.0016  1.0000
    10 H(1)   Bbb    -0.0294   -15.667    -5.590    -5.226  0.2912  0.9567 -0.0012
              Bcc     0.0623    33.222    11.854    11.082  0.9567 -0.2912  0.0016
 
              Baa    -0.1149     8.315     2.967     2.774 -0.0025 -0.0001  1.0000
    11 O(17)  Bbb    -0.0515     3.725     1.329     1.243  1.0000  0.0059  0.0025
              Bcc     0.1664   -12.040    -4.296    -4.016 -0.0059  1.0000  0.0001
 
              Baa    -0.1149     8.311     2.966     2.772  0.9999  0.0160  0.0018
    12 O(17)  Bbb    -0.0515     3.726     1.329     1.243 -0.0160  0.9999  0.0003
              Bcc     0.1663   -12.037    -4.295    -4.015 -0.0018 -0.0003  1.0000
 
              Baa    -0.1148     8.308     2.965     2.771 -0.0121  0.9999  0.0000
    13 O(17)  Bbb    -0.0515     3.725     1.329     1.242 -0.0007 -0.0001  1.0000
              Bcc     0.1663   -12.033    -4.294    -4.014  0.9999  0.0121  0.0007
 
              Baa    -0.0330   -17.602    -6.281    -5.871  0.9999  0.0081  0.0119
    14 H(1)   Bbb    -0.0294   -15.699    -5.602    -5.237 -0.0089 -0.3025  0.9531
              Bcc     0.0624    33.301    11.883    11.108 -0.0113  0.9531  0.3024
 
              Baa    -0.0330   -17.600    -6.280    -5.871  0.9999  0.0081 -0.0068
    15 H(1)   Bbb    -0.0294   -15.697    -5.601    -5.236  0.0040  0.3022  0.9532
              Bcc     0.0624    33.297    11.881    11.107 -0.0097  0.9532 -0.3022
 
              Baa    -0.0330   -17.592    -6.277    -5.868 -0.0165  0.9999  0.0002
    16 H(1)   Bbb    -0.0294   -15.692    -5.599    -5.234  0.9536  0.0158 -0.3006
              Bcc     0.0624    33.284    11.877    11.102  0.3005  0.0048  0.9538
 
              Baa    -0.0330   -17.603    -6.281    -5.872 -0.0162  0.9999  0.0002
    17 H(1)   Bbb    -0.0294   -15.700    -5.602    -5.237  0.9526  0.0154  0.3039
              Bcc     0.0624    33.303    11.883    11.109 -0.3039 -0.0052  0.9527
 
              Baa    -0.0331   -17.635    -6.293    -5.882 -0.0011 -0.0017  1.0000
    18 H(1)   Bbb    -0.0295   -15.722    -5.610    -5.244 -0.3132  0.9497  0.0013
              Bcc     0.0625    33.357    11.903    11.127  0.9497  0.3132  0.0016
 
              Baa    -0.0329   -17.555    -6.264    -5.856 -0.0011  0.0016  1.0000
    19 H(1)   Bbb    -0.0294   -15.667    -5.590    -5.226  0.2912  0.9567 -0.0012
              Bcc     0.0623    33.222    11.854    11.082  0.9567 -0.2912  0.0016
 

 ---------------------------------------------------------------------------------

 1\1\GINC-MN116\FOpt\UM062X\6-311++G(2d,2p)\H12Mn1O6(2+,6)\DARAM_A\29-J
 un-2015\0\\# opt 6-311++g(2d,2p) m062x output=wfnx scf=tight\\Mn[H2O]6
  (2+)\\2,6\Mn,0.,0.,0.\O,-0.0168246872,2.189645431,0.0001823402\O,-0.0
 035024603,-0.0004872747,2.1898235793\O,-2.1897987958,-0.0230619001,-0.
 0022866091\H,-0.0317688013,2.7634914453,0.775042105\H,-0.0277237202,2.
 7638064118,-0.7745139726\H,0.7699312792,0.0123224917,2.7656245717\H,-0
 .7794282707,-0.0133361896,2.7622878096\H,-2.7526437121,-0.806151672,-0
 .0043916831\H,-2.775114308,0.7432410174,-0.0043779102\O,0.0168246872,-
 2.189645431,-0.0001823402\O,0.0035024603,0.0004872747,-2.1898235793\O,
 2.1897987958,0.0230619001,0.0022866091\H,0.0317688013,-2.7634914453,-0
 .775042105\H,0.0277237202,-2.7638064118,0.7745139726\H,-0.7699312792,-
 0.0123224917,-2.7656245717\H,0.7794282707,0.0133361896,-2.7622878096\H
 ,2.7526437121,0.806151672,0.0043916831\H,2.775114308,-0.7432410174,0.0
 043779102\\Version=ES64L-G09RevD.01\State=6-AG\HF=-1609.1419043\S2=8.7
 51836\S2-1=0.\S2A=8.750001\RMSD=6.662e-09\RMSF=1.146e-05\Dipole=0.,0.,
 0.\Quadrupole=0.0008657,-0.0012357,0.00037,-0.0293338,0.0046051,-0.001
 2632\PG=CI [O(Mn1),X(H12O6)]\\@

 Writing a WFNX file to "Mn26.wfx"


 THE HURRIEDER I GO, THE BEHINDER I GET.
 Job cpu time:       0 days  0 hours 54 minutes 53.0 seconds.
 File lengths (MBytes):  RWF=     95 Int=      0 D2E=      0 Chk=     12 Scr=      1
 Normal termination of Gaussian 09 at Mon Jun 29 17:17:19 2015.
