 Entering Gaussian System, Link 0=g09
 Input=/home/scratch/M_H2O_4_cuadrado_plano/Opt/Ti2_cuadrado_plano_cc-pvtz-def2-tzv_1.gjf
 Output=/home/scratch/M_H2O_4_cuadrado_plano/Opt/Ti2_cuadrado_plano_cc-pvtz-def2-tzv_1.log
 Initial command:
 /opt/g09/l1.exe "/home/scratch/Gau-23482.inp" -scrdir="/home/scratch/"
 Entering Link 1 = /opt/g09/l1.exe PID=     23485.
  
 Copyright (c) 1988,1990,1992,1993,1995,1998,2003,2009,2015,
            Gaussian, Inc.  All Rights Reserved.
  
 This is part of the Gaussian(R) 09 program.  It is based on
 the Gaussian(R) 03 system (copyright 2003, Gaussian, Inc.),
 the Gaussian(R) 98 system (copyright 1998, Gaussian, Inc.),
 the Gaussian(R) 94 system (copyright 1995, Gaussian, Inc.),
 the Gaussian 92(TM) system (copyright 1992, Gaussian, Inc.),
 the Gaussian 90(TM) system (copyright 1990, Gaussian, Inc.),
 the Gaussian 88(TM) system (copyright 1988, Gaussian, Inc.),
 the Gaussian 86(TM) system (copyright 1986, Carnegie Mellon
 University), and the Gaussian 82(TM) system (copyright 1983,
 Carnegie Mellon University). Gaussian is a federally registered
 trademark of Gaussian, Inc.
  
 This software contains proprietary and confidential information,
 including trade secrets, belonging to Gaussian, Inc.
  
 This software is provided under written license and may be
 used, copied, transmitted, or stored only in accord with that
 written license.
  
 The following legend is applicable only to US Government
 contracts under FAR:
  
                    RESTRICTED RIGHTS LEGEND
  
 Use, reproduction and disclosure by the US Government is
 subject to restrictions as set forth in subparagraphs (a)
 and (c) of the Commercial Computer Software - Restricted
 Rights clause in FAR 52.227-19.
  
 Gaussian, Inc.
 340 Quinnipiac St., Bldg. 40, Wallingford CT 06492
  
  
 ---------------------------------------------------------------
 Warning -- This program may not be used in any manner that
 competes with the business of Gaussian, Inc. or will provide
 assistance to any competitor of Gaussian, Inc.  The licensee
 of this program is prohibited from giving any competitor of
 Gaussian, Inc. access to this program.  By using this program,
 the user acknowledges that Gaussian, Inc. is engaged in the
 business of creating and licensing software in the field of
 computational chemistry and represents and warrants to the
 licensee that it is not a competitor of Gaussian, Inc. and that
 it will not use this program in any manner prohibited above.
 ---------------------------------------------------------------
  

 Cite this work as:
 Gaussian 09, Revision E.01,
 M. J. Frisch, G. W. Trucks, H. B. Schlegel, G. E. Scuseria, 
 M. A. Robb, J. R. Cheeseman, G. Scalmani, V. Barone, B. Mennucci, 
 G. A. Petersson, H. Nakatsuji, M. Caricato, X. Li, H. P. Hratchian, 
 A. F. Izmaylov, J. Bloino, G. Zheng, J. L. Sonnenberg, M. Hada, 
 M. Ehara, K. Toyota, R. Fukuda, J. Hasegawa, M. Ishida, T. Nakajima, 
 Y. Honda, O. Kitao, H. Nakai, T. Vreven, J. A. Montgomery, Jr., 
 J. E. Peralta, F. Ogliaro, M. Bearpark, J. J. Heyd, E. Brothers, 
 K. N. Kudin, V. N. Staroverov, T. Keith, R. Kobayashi, J. Normand, 
 K. Raghavachari, A. Rendell, J. C. Burant, S. S. Iyengar, J. Tomasi, 
 M. Cossi, N. Rega, J. M. Millam, M. Klene, J. E. Knox, J. B. Cross, 
 V. Bakken, C. Adamo, J. Jaramillo, R. Gomperts, R. E. Stratmann, 
 O. Yazyev, A. J. Austin, R. Cammi, C. Pomelli, J. W. Ochterski, 
 R. L. Martin, K. Morokuma, V. G. Zakrzewski, G. A. Voth, 
 P. Salvador, J. J. Dannenberg, S. Dapprich, A. D. Daniels, 
 O. Farkas, J. B. Foresman, J. V. Ortiz, J. Cioslowski, 
 and D. J. Fox, Gaussian, Inc., Wallingford CT, 2013.
 
 ******************************************
 Gaussian 09:  EM64L-G09RevE.01 30-Nov-2015
                 7-Aug-2024 
 ******************************************
 %chk=Ti2_cuadrado_plano_cc-pvtz-def2-tzv_1.chk
 ------------------------------------------------------------------
 # opt pbepbe/cc-pvtz/def2tzv pop=full geom=connectivity output=wfx
 ------------------------------------------------------------------
 1/14=-1,18=20,19=15,26=3,38=1,57=2/1,3;
 2/9=110,12=2,17=6,18=5,40=1/2;
 3/5=16,6=1,11=2,16=1,25=1,30=1,71=1,74=1009,82=44/1,2,3;
 4//1;
 5/5=2,38=5/2;
 6/7=3,28=1/1;
 7//1,2,3,16;
 1/14=-1,18=20,19=15,26=3/3(2);
 2/9=110/2;
 99/6=200/99;
 2/9=110/2;
 3/5=16,6=1,11=2,16=1,25=1,30=1,71=1,74=1009,82=44/1,2,3;
 4/5=5,16=3,69=1/1;
 5/5=2,38=5/2;
 7//1,2,3,16;
 1/14=-1,18=20,19=15,26=3/3(-5);
 2/9=110/2;
 6/7=3,19=2,28=1/1;
 99/6=200,9=1/99;
 -------------------------------------
 Ti2_cuadrado_plano_cc-pvtz-def2-tzv_1
 -------------------------------------
 Symbolic Z-matrix:
 Charge =  2 Multiplicity = 1
 Ti                   -1   -0.00004  -0.00001  -0.00005 
 O                    -1   -1.71612  -0.98767  -0.00005 
 H                    0    -2.41653  -0.9379    0.68618 
 O                    -1    0.98761  -1.71609  -0.00005 
 H                    0     1.62342  -2.02278  -0.68243 
 O                    -1    1.71604   0.98765  -0.00005 
 H                    0     2.02647   1.61619  -0.68753 
 O                    -1   -0.9877    1.71607  -0.00005 
 H                    0    -1.62427   2.02235  -0.6819 
 H                    0     0.9349   -2.41731   0.68517 
 H                    0    -2.02516  -1.61715  -0.68728 
 H                    0    -0.93196   2.41896   0.68319 
 H                    0     2.41554   0.93825   0.68716 
 

 GradGradGradGradGradGradGradGradGradGradGradGradGradGradGradGradGradGrad
 Berny optimization.
 Initialization pass.
                           ----------------------------
                           !    Initial Parameters    !
                           ! (Angstroms and Degrees)  !
 --------------------------                            --------------------------
 ! Name  Definition              Value          Derivative Info.                !
 --------------------------------------------------------------------------------
 ! X1    R(1,-1)                 0.0            Frozen                          !
 ! Y1    R(1,-2)                 0.0            Frozen                          !
 ! Z1    R(1,-3)                 0.0            Frozen                          !
 ! X2    R(2,-1)                -1.7161         Frozen                          !
 ! Y2    R(2,-2)                -0.9877         Frozen                          !
 ! Z2    R(2,-3)                 0.0            Frozen                          !
 ! X4    R(4,-1)                 0.9876         Frozen                          !
 ! Y4    R(4,-2)                -1.7161         Frozen                          !
 ! Z4    R(4,-3)                 0.0            Frozen                          !
 ! X6    R(6,-1)                 1.716          Frozen                          !
 ! Y6    R(6,-2)                 0.9876         Frozen                          !
 ! Z6    R(6,-3)                 0.0            Frozen                          !
 ! X8    R(8,-1)                -0.9877         Frozen                          !
 ! Y8    R(8,-2)                 1.7161         Frozen                          !
 ! Z8    R(8,-3)                 0.0            Frozen                          !
 ! R1    R(2,3)                  0.9818         estimate D2E/DX2                !
 ! R2    R(2,11)                 0.9819         estimate D2E/DX2                !
 ! R3    R(4,5)                  0.9818         estimate D2E/DX2                !
 ! R4    R(4,10)                 0.9818         estimate D2E/DX2                !
 ! R5    R(6,7)                  0.9819         estimate D2E/DX2                !
 ! R6    R(6,13)                 0.9818         estimate D2E/DX2                !
 ! R7    R(8,9)                  0.9818         estimate D2E/DX2                !
 ! R8    R(8,12)                 0.9818         estimate D2E/DX2                !
 ! A1    A(1,2,3)              126.3705         estimate D2E/DX2                !
 ! A2    A(1,2,11)             126.3411         estimate D2E/DX2                !
 ! A3    A(3,2,11)             107.2884         estimate D2E/DX2                !
 ! A4    A(1,4,5)              126.424          estimate D2E/DX2                !
 ! A5    A(1,4,10)             126.3142         estimate D2E/DX2                !
 ! A6    A(5,4,10)             107.2614         estimate D2E/DX2                !
 ! A7    A(1,6,7)              126.3943         estimate D2E/DX2                !
 ! A8    A(1,6,13)             126.3266         estimate D2E/DX2                !
 ! A9    A(7,6,13)             107.279          estimate D2E/DX2                !
 ! A10   A(1,8,9)              126.4266         estimate D2E/DX2                !
 ! A11   A(1,8,12)             126.3103         estimate D2E/DX2                !
 ! A12   A(9,8,12)             107.2631         estimate D2E/DX2                !
 ! D1    D(4,1,2,3)            119.7691         estimate D2E/DX2                !
 ! D2    D(4,1,2,11)           -60.336          estimate D2E/DX2                !
 ! D3    D(8,1,2,3)            -60.2309         estimate D2E/DX2                !
 ! D4    D(8,1,2,11)           119.664          estimate D2E/DX2                !
 ! D5    D(3,2,6,7)           -120.671          estimate D2E/DX2                !
 ! D6    D(3,2,6,13)            59.4541         estimate D2E/DX2                !
 ! D7    D(11,2,6,7)            59.2239         estimate D2E/DX2                !
 ! D8    D(11,2,6,13)         -120.651          estimate D2E/DX2                !
 ! D9    D(2,1,4,5)            120.2574         estimate D2E/DX2                !
 ! D10   D(2,1,4,10)           -60.0093         estimate D2E/DX2                !
 ! D11   D(6,1,4,5)            -59.7426         estimate D2E/DX2                !
 ! D12   D(6,1,4,10)           119.9907         estimate D2E/DX2                !
 ! D13   D(5,4,8,9)             60.5882         estimate D2E/DX2                !
 ! D14   D(5,4,8,12)          -119.4628         estimate D2E/DX2                !
 ! D15   D(10,4,8,9)          -119.6785         estimate D2E/DX2                !
 ! D16   D(10,4,8,12)           60.2705         estimate D2E/DX2                !
 ! D17   D(4,1,6,7)            119.5599         estimate D2E/DX2                !
 ! D18   D(4,1,6,13)           -60.3149         estimate D2E/DX2                !
 ! D19   D(8,1,6,7)            -60.4401         estimate D2E/DX2                !
 ! D20   D(8,1,6,13)           119.6851         estimate D2E/DX2                !
 ! D21   D(2,1,8,9)            -59.6692         estimate D2E/DX2                !
 ! D22   D(2,1,8,12)           120.2799         estimate D2E/DX2                !
 ! D23   D(6,1,8,9)            120.3308         estimate D2E/DX2                !
 ! D24   D(6,1,8,12)           -59.7201         estimate D2E/DX2                !
 --------------------------------------------------------------------------------
 Trust Radius=3.00D-01 FncErr=1.00D-07 GrdErr=1.00D-06
 Number of steps in this run=     69 maximum allowed number of steps=    100.
 GradGradGradGradGradGradGradGradGradGradGradGradGradGradGradGradGradGrad

                          Input orientation:                          
 ---------------------------------------------------------------------
 Center     Atomic      Atomic             Coordinates (Angstroms)
 Number     Number       Type             X           Y           Z
 ---------------------------------------------------------------------
      1         22           0       -0.000045   -0.000011   -0.000047
      2          8           0       -1.716125   -0.987670   -0.000047
      3          1           0       -2.416533   -0.937896    0.686182
      4          8           0        0.987614   -1.716092   -0.000047
      5          1           0        1.623415   -2.022777   -0.682433
      6          8           0        1.716035    0.987647   -0.000047
      7          1           0        2.026469    1.616187   -0.687534
      8          8           0       -0.987703    1.716069   -0.000047
      9          1           0       -1.624265    2.022354   -0.681897
     10          1           0        0.934905   -2.417310    0.685173
     11          1           0       -2.025160   -1.617145   -0.687280
     12          1           0       -0.931959    2.418955    0.683185
     13          1           0        2.415539    0.938252    0.687155
 ---------------------------------------------------------------------
                    Distance matrix (angstroms):
                    1          2          3          4          5
     1  Ti   0.000000
     2  O    1.980000   0.000000
     3  H    2.681409   0.981814   0.000000
     4  O    1.980000   2.800143   3.558752   0.000000
     5  H    2.681949   3.562250   4.401278   0.981809   0.000000
     6  O    1.980000   3.960000   4.610504   2.800143   3.088184
     7  H    2.681696   4.610826   5.305723   3.557519   3.661221
     8  O    1.980000   2.800143   3.091276   3.960000   4.611134
     9  H    2.681972   3.087653   3.355951   4.611161   5.187535
    10  H    2.680856   3.088909   3.663441   0.981842   1.581154
    11  H    2.681138   0.981851   1.581440   3.091745   3.671057
    12  H    2.680797   3.561856   3.670479   4.609792   5.303191
    13  H    2.680975   4.609996   5.183516   3.091400   3.357219
                    6          7          8          9         10
     6  O    0.000000
     7  H    0.981870   0.000000
     8  O    2.800143   3.093194   0.000000
     9  H    3.562744   3.673263   0.981805   0.000000
    10  H    3.559976   4.398288   4.609856   5.303664   0.000000
    11  H    4.610181   5.183641   3.557937   3.661516   3.359446
    12  H    3.086636   3.357916   0.981816   1.581148   5.184076
    13  H    0.981831   1.581374   3.557991   4.401091   3.667707
                   11         12         13
    11  H    0.000000
    12  H    4.400383   0.000000
    13  H    5.304614   3.660360   0.000000
 Stoichiometry    H8O4Ti(2+)
 Framework group  C1[X(H8O4Ti)]
 Deg. of freedom    33
 Full point group                 C1      NOp   1
 Largest Abelian subgroup         C1      NOp   1
 Largest concise Abelian subgroup C1      NOp   1
                         Standard orientation:                         
 ---------------------------------------------------------------------
 Center     Atomic      Atomic             Coordinates (Angstroms)
 Number     Number       Type             X           Y           Z
 ---------------------------------------------------------------------
      1         22           0        0.000045    0.000011   -0.000047
      2          8           0        1.716124    0.987672   -0.000047
      3          1           0        2.416532    0.937898    0.686182
      4          8           0       -0.987615    1.716091   -0.000047
      5          1           0       -1.623417    2.022776   -0.682433
      6          8           0       -1.716035   -0.987649   -0.000047
      7          1           0       -2.026467   -1.616189   -0.687534
      8          8           0        0.987705   -1.716068   -0.000047
      9          1           0        1.624267   -2.022353   -0.681897
     10          1           0       -0.934907    2.417310    0.685173
     11          1           0        2.025158    1.617147   -0.687280
     12          1           0        0.931961   -2.418955    0.683185
     13          1           0       -2.415538   -0.938254    0.687155
 ---------------------------------------------------------------------
 Rotational constants (GHZ):      3.2339913      3.2332583      1.6569333
 Standard basis: CC-pVTZ (5D, 7F)
 There are   344 symmetry adapted cartesian basis functions of A   symmetry.
 There are   300 symmetry adapted basis functions of A   symmetry.
   300 basis functions,   698 primitive gaussians,   344 cartesian basis functions
    30 alpha electrons       30 beta electrons
       nuclear repulsion energy       355.0969135925 Hartrees.
 NAtoms=   13 NActive=   13 NUniq=   13 SFac= 1.00D+00 NAtFMM=   60 NAOKFM=F Big=F
 Integral buffers will be    131072 words long.
 Raffenetti 2 integral format.
 Two-electron integral symmetry is turned on.
 Standard density basis: def2TZV (5D, 7F)
   110 Density fitting functions
 There are   110 symmetry adapted density basis functions of A   symmetry.
 One-electron integrals computed using PRISM.
 NBasis=   300 RedAO= T EigKep=  9.63D-04  NBF=   300
 NBsUse=   300 1.00D-06 EigRej= -1.00D+00 NBFU=   300
 NBasis=      300 NBas6D=      344 NTT=       45150   NTT6D=    59340
 NDBShl=       68 NDBF=        110 NDBF6D=      113  NNucDB=        0
 IDenFi=        2 ISolve=        0 FullAP=F BlkAPC=T NucTyp=        0
 TolInv= 1.00D-06 TolIt=  1.00D-10 IR12=0.
 FoFCou: FMM=F IPFlag=           0 FMFlag=           0 FMFlg1=           0
         NFxFlg=           0 DoJE=F BraDBF=T KetDBF=T FulRan=T
         wScrn=  0.000000 ICntrl=     600 IOpCl=  3 I1Cent=           6 NGrid=           0
         NMat0=    1 NMatS0=    113 NMatT0=    0 NMatD0=    1 NMtDS0=    0 NMtDT0=    0
 Petite list used in FoFCou.
 DBF EigKep=  1.71D-04 EigRej= -1.00D+00
 NDBF=    110  NBFD=   110
 NRank=   110 NBFDU=   110
 S*AI*S=  9.85630741346    
 ExpMin= 2.55D-02 ExpMax= 3.01D+06 ExpMxC= 3.43D+03 IAcc=3 IRadAn=         5 AccDes= 0.00D+00
 Harris functional with IExCor= 1009 and IRadAn=       5 diagonalized for initial guess.
 HarFok:  IExCor= 1009 AccDes= 0.00D+00 IRadAn=         5 IDoV= 1 UseB2=F ITyADJ=14
 ICtDFT=  3500011 ScaDFX=  1.000000  1.000000  1.000000  1.000000
 FoFCou: FMM=F IPFlag=           0 FMFlag=      100000 FMFlg1=           0
         NFxFlg=           0 DoJE=T BraDBF=F KetDBF=T FulRan=T
         wScrn=  0.000000 ICntrl=     500 IOpCl=  0 I1Cent=   200000004 NGrid=           0
         NMat0=    1 NMatS0=      1 NMatT0=    0 NMatD0=    1 NMtDS0=    0 NMtDT0=    0
 Petite list used in FoFCou.
 Requested convergence on RMS density matrix=1.00D-08 within 128 cycles.
 Requested convergence on MAX density matrix=1.00D-06.
 Requested convergence on             energy=1.00D-06.
 No special actions if energy rises.
 FoFCou: FMM=F IPFlag=           0 FMFlag=      100000 FMFlg1=           0
         NFxFlg=           0 DoJE=T BraDBF=T KetDBF=F FulRan=T
         wScrn=  0.000000 ICntrl=     500 IOpCl=  0 I1Cent=           5 NGrid=           0
         NMat0=    1 NMatS0=      1 NMatT0=    0 NMatD0=    1 NMtDS0=    0 NMtDT0=    0
 Symmetry not used in FoFCou.
 EnCoef did     3 forward-backward iterations
 EnCoef did   100 forward-backward iterations
 SCF Done:  E(RPBE-PBE) =  -1155.08528908     A.U. after   18 cycles
            NFock= 18  Conv=0.14D-08     -V/T= 2.0022

 **********************************************************************

            Population analysis using the SCF density.

 **********************************************************************

 Orbital symmetries:
       Occupied  (A) (A) (A) (A) (A) (A) (A) (A) (A) (A) (A) (A)
                 (A) (A) (A) (A) (A) (A) (A) (A) (A) (A) (A) (A)
                 (A) (A) (A) (A) (A) (A)
       Virtual   (A) (A) (A) (A) (A) (A) (A) (A) (A) (A) (A) (A)
                 (A) (A) (A) (A) (A) (A) (A) (A) (A) (A) (A) (A)
                 (A) (A) (A) (A) (A) (A) (A) (A) (A) (A) (A) (A)
                 (A) (A) (A) (A) (A) (A) (A) (A) (A) (A) (A) (A)
                 (A) (A) (A) (A) (A) (A) (A) (A) (A) (A) (A) (A)
                 (A) (A) (A) (A) (A) (A) (A) (A) (A) (A) (A) (A)
                 (A) (A) (A) (A) (A) (A) (A) (A) (A) (A) (A) (A)
                 (A) (A) (A) (A) (A) (A) (A) (A) (A) (A) (A) (A)
                 (A) (A) (A) (A) (A) (A) (A) (A) (A) (A) (A) (A)
                 (A) (A) (A) (A) (A) (A) (A) (A) (A) (A) (A) (A)
                 (A) (A) (A) (A) (A) (A) (A) (A) (A) (A) (A) (A)
                 (A) (A) (A) (A) (A) (A) (A) (A) (A) (A) (A) (A)
                 (A) (A) (A) (A) (A) (A) (A) (A) (A) (A) (A) (A)
                 (A) (A) (A) (A) (A) (A) (A) (A) (A) (A) (A) (A)
                 (A) (A) (A) (A) (A) (A) (A) (A) (A) (A) (A) (A)
                 (A) (A) (A) (A) (A) (A) (A) (A) (A) (A) (A) (A)
                 (A) (A) (A) (A) (A) (A) (A) (A) (A) (A) (A) (A)
                 (A) (A) (A) (A) (A) (A) (A) (A) (A) (A) (A) (A)
                 (A) (A) (A) (A) (A) (A) (A) (A) (A) (A) (A) (A)
                 (A) (A) (A) (A) (A) (A) (A) (A) (A) (A) (A) (A)
                 (A) (A) (A) (A) (A) (A) (A) (A) (A) (A) (A) (A)
                 (A) (A) (A) (A) (A) (A) (A) (A) (A) (A) (A) (A)
                 (A) (A) (A) (A) (A) (A)
 The electronic state is 1-A.
 Alpha  occ. eigenvalues -- -177.99845 -20.01623 -19.16808 -19.16805 -19.16798
 Alpha  occ. eigenvalues --  -19.16797 -16.80156 -16.80153 -16.78301  -2.61382
 Alpha  occ. eigenvalues --   -1.77087  -1.77084  -1.72501  -1.33951  -1.33343
 Alpha  occ. eigenvalues --   -1.33010  -1.33003  -0.88550  -0.88477  -0.88466
 Alpha  occ. eigenvalues --   -0.88290  -0.81929  -0.81139  -0.77646  -0.77641
 Alpha  occ. eigenvalues --   -0.71442  -0.68839  -0.68832  -0.67148  -0.46870
 Alpha virt. eigenvalues --   -0.44837  -0.42850  -0.42833  -0.37809  -0.36457
 Alpha virt. eigenvalues --   -0.33200  -0.33188  -0.31725  -0.28170  -0.25560
 Alpha virt. eigenvalues --   -0.25551  -0.25250  -0.24963  -0.22443  -0.18342
 Alpha virt. eigenvalues --   -0.16995  -0.16946  -0.16158  -0.15578  -0.15552
 Alpha virt. eigenvalues --   -0.13772  -0.13286  -0.13283  -0.11925  -0.11348
 Alpha virt. eigenvalues --   -0.02015   0.03229   0.03625   0.04647   0.04796
 Alpha virt. eigenvalues --    0.06093   0.08836   0.08890   0.08956   0.15584
 Alpha virt. eigenvalues --    0.15613   0.16623   0.16700   0.16780   0.19908
 Alpha virt. eigenvalues --    0.19939   0.22225   0.23427   0.23538   0.24046
 Alpha virt. eigenvalues --    0.24059   0.24966   0.29178   0.30078   0.31711
 Alpha virt. eigenvalues --    0.31756   0.31785   0.32771   0.32844   0.33921
 Alpha virt. eigenvalues --    0.40814   0.40838   0.40981   0.45970   0.48999
 Alpha virt. eigenvalues --    0.49025   0.57522   0.59024   0.59055   0.60334
 Alpha virt. eigenvalues --    0.62134   0.66006   0.70073   0.72099   0.74716
 Alpha virt. eigenvalues --    0.74749   0.79479   0.79527   0.84094   0.84167
 Alpha virt. eigenvalues --    0.85373   0.86230   0.86377   0.86415   0.90011
 Alpha virt. eigenvalues --    0.93273   0.95901   0.95951   0.97501   0.98869
 Alpha virt. eigenvalues --    1.07198   1.11580   1.11614   1.23209   1.23826
 Alpha virt. eigenvalues --    1.30173   1.30812   1.30858   1.30915   1.42551
 Alpha virt. eigenvalues --    1.42752   1.43389   1.49530   1.50679   1.51310
 Alpha virt. eigenvalues --    1.56252   1.56311   1.57359   1.59011   1.61499
 Alpha virt. eigenvalues --    1.61536   1.64791   1.66070   1.70878   1.71023
 Alpha virt. eigenvalues --    1.72313   1.79591   1.85785   1.85912   1.97210
 Alpha virt. eigenvalues --    1.97274   2.05648   2.07248   2.07300   2.08227
 Alpha virt. eigenvalues --    2.17056   2.27591   2.27770   2.30097   2.36514
 Alpha virt. eigenvalues --    2.37190   2.55568   2.55643   2.58773   2.58801
 Alpha virt. eigenvalues --    2.63273   2.63293   2.65711   2.68445   2.68840
 Alpha virt. eigenvalues --    2.71674   2.71762   2.75520   2.77156   2.79789
 Alpha virt. eigenvalues --    2.79843   2.81806   2.81829   2.83834   2.84601
 Alpha virt. eigenvalues --    2.86559   2.90031   2.90322   2.91497   2.91515
 Alpha virt. eigenvalues --    2.92032   2.95397   2.95878   2.95986   2.99221
 Alpha virt. eigenvalues --    3.02225   3.06933   3.07081   3.09568   3.15277
 Alpha virt. eigenvalues --    3.16278   3.16296   3.19923   3.20480   3.21109
 Alpha virt. eigenvalues --    3.21169   3.23375   3.25780   3.25910   3.29712
 Alpha virt. eigenvalues --    3.40902   3.40939   3.44367   3.45134   3.45369
 Alpha virt. eigenvalues --    3.45695   3.45719   3.45750   3.49648   3.49678
 Alpha virt. eigenvalues --    3.49798   3.49926   3.54144   3.57934   3.61985
 Alpha virt. eigenvalues --    3.62029   3.62401   3.62664   3.75538   3.75584
 Alpha virt. eigenvalues --    3.80795   3.84196   3.86391   3.86449   3.88270
 Alpha virt. eigenvalues --    3.88314   3.90051   3.97305   3.98658   3.99071
 Alpha virt. eigenvalues --    3.99162   4.02737   4.13528   4.14445   4.14500
 Alpha virt. eigenvalues --    4.15849   4.26089   4.26144   4.37158   4.43189
 Alpha virt. eigenvalues --    4.54460   4.56647   4.56712   4.58269   4.66948
 Alpha virt. eigenvalues --    4.68073   4.76221   4.76298   5.08371   5.11928
 Alpha virt. eigenvalues --    5.11991   5.16233   5.53590   5.57218   5.57307
 Alpha virt. eigenvalues --    5.60587   5.85270   5.85284   5.86029   5.87724
 Alpha virt. eigenvalues --    5.87933   5.90833   5.90867   5.91142   6.03542
 Alpha virt. eigenvalues --    6.08246   6.10494   6.10635   6.12994   6.15318
 Alpha virt. eigenvalues --    6.15403   6.17875   6.19020   6.19029   6.20932
 Alpha virt. eigenvalues --    6.21995   6.22959   6.26252   6.28416   6.28489
 Alpha virt. eigenvalues --    6.45062   6.46060   6.46082   6.48076   6.59964
 Alpha virt. eigenvalues --    6.59978   6.65787   6.73246   6.76927   6.79385
 Alpha virt. eigenvalues --    6.81697   6.81805   7.33900   7.34035   7.34764
 Alpha virt. eigenvalues --    7.37126  12.11261  12.11450  12.46915  12.83185
     Molecular Orbital Coefficients:
                           1         2         3         4         5
                           O         O         O         O         O
     Eigenvalues --  -177.99845 -20.01623 -19.16808 -19.16805 -19.16798
   1 1   Ti 1S          0.99874  -0.29582   0.00000   0.00000   0.00000
   2        2S          0.00459   1.04309  -0.00000  -0.00000  -0.00000
   3        3S         -0.00050  -0.00368   0.00001   0.00001   0.00001
   4        4S         -0.00300  -0.01547   0.00294   0.00302   0.00274
   5        5S         -0.00241  -0.01157   0.00160   0.00164   0.00149
   6        6S          0.00054   0.00223   0.00007   0.00008   0.00007
   7        7S         -0.00029  -0.00143   0.00025   0.00025   0.00023
   8        8PX        -0.00000   0.00000   0.00003  -0.00003   0.00002
   9        8PY         0.00000  -0.00000   0.00002  -0.00002  -0.00003
  10        8PZ        -0.00000  -0.00000  -0.00000  -0.00000  -0.00000
  11        9PX        -0.00000  -0.00000   0.00115  -0.00112   0.00070
  12        9PY         0.00000   0.00000   0.00066  -0.00064  -0.00122
  13        9PZ        -0.00000  -0.00000  -0.00000  -0.00000  -0.00000
  14       10PX        -0.00000  -0.00000   0.00245  -0.00238   0.00150
  15       10PY         0.00000   0.00000   0.00141  -0.00137  -0.00260
  16       10PZ         0.00000   0.00000  -0.00000  -0.00000  -0.00000
  17       11PX        -0.00000  -0.00000  -0.00076   0.00074  -0.00046
  18       11PY         0.00000   0.00000  -0.00044   0.00042   0.00080
  19       11PZ         0.00000   0.00000   0.00000   0.00000   0.00000
  20       12PX        -0.00000  -0.00000   0.00051  -0.00050   0.00031
  21       12PY         0.00000   0.00000   0.00029  -0.00029  -0.00054
  22       12PZ        -0.00000  -0.00000  -0.00000  -0.00000  -0.00000
  23       13PX         0.00000   0.00000  -0.00011   0.00011  -0.00007
  24       13PY        -0.00000  -0.00000  -0.00006   0.00006   0.00012
  25       13PZ         0.00000   0.00000  -0.00000  -0.00000   0.00000
  26       14D 0        0.00001   0.00063  -0.00014  -0.00014  -0.00013
  27       14D+1        0.00000  -0.00000   0.00001  -0.00001  -0.00002
  28       14D-1       -0.00000  -0.00000  -0.00002   0.00002  -0.00001
  29       14D+2       -0.00000  -0.00000   0.00003   0.00003  -0.00002
  30       14D-2       -0.00000  -0.00000   0.00004   0.00005  -0.00004
  31       15D 0        0.00039   0.00196  -0.00060  -0.00062  -0.00056
  32       15D+1       -0.00000  -0.00000   0.00000  -0.00000  -0.00000
  33       15D-1       -0.00000   0.00000  -0.00000   0.00000  -0.00000
  34       15D+2        0.00000   0.00000   0.00058   0.00060  -0.00054
  35       15D-2        0.00000   0.00000   0.00100   0.00103  -0.00093
  36       16D 0        0.00000  -0.00079   0.00005   0.00005   0.00004
  37       16D+1       -0.00000   0.00000  -0.00000   0.00000   0.00000
  38       16D-1        0.00000   0.00000   0.00000  -0.00000   0.00000
  39       16D+2        0.00000   0.00000  -0.00001  -0.00001   0.00001
  40       16D-2        0.00000   0.00000  -0.00002  -0.00002   0.00001
  41       17D 0       -0.00013  -0.00048   0.00006   0.00006   0.00006
  42       17D+1       -0.00000  -0.00000  -0.00003   0.00003   0.00005
  43       17D-1       -0.00000  -0.00000   0.00005  -0.00005   0.00003
  44       17D+2        0.00000   0.00000  -0.00014  -0.00014   0.00013
  45       17D-2        0.00000   0.00000  -0.00024  -0.00025   0.00023
  46       18F 0        0.00000  -0.00000   0.00000   0.00000   0.00000
  47       18F+1        0.00000   0.00000  -0.00005   0.00005  -0.00003
  48       18F-1       -0.00000  -0.00000  -0.00003   0.00003   0.00005
  49       18F+2        0.00000   0.00000  -0.00001  -0.00002   0.00001
  50       18F-2       -0.00000   0.00000   0.00001   0.00001  -0.00001
  51       18F+3        0.00000   0.00000   0.00000  -0.00000  -0.00009
  52       18F-3        0.00000  -0.00000   0.00008  -0.00008   0.00000
  53       19F 0        0.00000   0.00000  -0.00000  -0.00000  -0.00000
  54       19F+1       -0.00000  -0.00000   0.00056  -0.00054   0.00034
  55       19F-1        0.00000   0.00000   0.00032  -0.00031  -0.00059
  56       19F+2       -0.00000  -0.00000   0.00006   0.00006  -0.00005
  57       19F-2        0.00000   0.00000  -0.00003  -0.00003   0.00003
  58       19F+3       -0.00000  -0.00000  -0.00000   0.00000   0.00089
  59       19F-3        0.00000   0.00000  -0.00084   0.00082  -0.00000
  60       20G 0       -0.00001  -0.00006   0.00008   0.00008   0.00007
  61       20G+1       -0.00000  -0.00000   0.00000  -0.00000  -0.00001
  62       20G-1        0.00000  -0.00000  -0.00001   0.00000  -0.00000
  63       20G+2       -0.00000  -0.00000  -0.00006  -0.00007   0.00006
  64       20G-2       -0.00000  -0.00000  -0.00011  -0.00011   0.00010
  65       20G+3       -0.00000  -0.00000  -0.00001   0.00001   0.00000
  66       20G-3       -0.00000   0.00000  -0.00000  -0.00000  -0.00001
  67       20G+4        0.00001   0.00008  -0.00008  -0.00008  -0.00007
  68       20G-4       -0.00002  -0.00015   0.00014   0.00014   0.00013
  69 2   O  1S         -0.00002  -0.00008  -0.01254   0.97327  -0.00008
  70        2S         -0.00008  -0.00045   0.00014  -0.00695   0.00006
  71        3S          0.00001   0.00002  -0.00071   0.05114  -0.00002
  72        4S          0.00035   0.00196   0.00030   0.00370  -0.00007
  73        5PX         0.00000   0.00000   0.00002   0.00083   0.00001
  74        5PY         0.00000   0.00000   0.00001   0.00048  -0.00000
  75        5PZ        -0.00000  -0.00000   0.00000  -0.00000  -0.00001
  76        6PX         0.00000   0.00006  -0.00016   0.00130  -0.00008
  77        6PY         0.00000   0.00004  -0.00009   0.00075  -0.00002
  78        6PZ         0.00000   0.00000  -0.00000  -0.00000   0.00006
  79        7PX        -0.00029  -0.00170  -0.00043   0.00303   0.00024
  80        7PY        -0.00016  -0.00098  -0.00025   0.00174  -0.00010
  81        7PZ         0.00000   0.00000  -0.00000  -0.00000   0.00017
  82        8D 0       -0.00000   0.00000   0.00000   0.00002  -0.00002
  83        8D+1       -0.00000  -0.00001  -0.00000   0.00010  -0.00001
  84        8D-1        0.00000   0.00002   0.00001  -0.00017  -0.00000
  85        8D+2        0.00000  -0.00000  -0.00001   0.00010  -0.00000
  86        8D-2        0.00000  -0.00001  -0.00002   0.00017   0.00000
  87        9D 0        0.00002   0.00002  -0.00005   0.00059   0.00005
  88        9D+1        0.00002   0.00007   0.00001   0.00027   0.00005
  89        9D-1       -0.00003  -0.00012  -0.00001  -0.00047   0.00004
  90        9D+2       -0.00001   0.00001   0.00006  -0.00020   0.00005
  91        9D-2       -0.00001   0.00002   0.00010  -0.00035  -0.00003
  92       10F 0       -0.00000  -0.00000   0.00000  -0.00000  -0.00000
  93       10F+1        0.00001   0.00003  -0.00000   0.00018  -0.00000
  94       10F-1        0.00000   0.00002  -0.00000   0.00010  -0.00001
  95       10F+2        0.00000   0.00002  -0.00000   0.00021  -0.00000
  96       10F-2       -0.00000  -0.00001   0.00000  -0.00012   0.00001
  97       10F+3       -0.00000  -0.00000  -0.00000  -0.00000  -0.00001
  98       10F-3       -0.00000  -0.00003  -0.00000  -0.00003   0.00000
  99 3   H  1S         -0.00001  -0.00005   0.00000   0.00033  -0.00001
 100        2S          0.00003   0.00015   0.00003  -0.00345  -0.00017
 101        3S         -0.00004  -0.00004   0.00017  -0.00049  -0.00013
 102        4PX         0.00000   0.00000  -0.00002   0.00040   0.00001
 103        4PY        -0.00000  -0.00002  -0.00001   0.00006  -0.00000
 104        4PZ         0.00000   0.00004   0.00000   0.00026  -0.00000
 105        5PX         0.00004   0.00023   0.00004   0.00124   0.00003
 106        5PY         0.00005   0.00024   0.00006  -0.00018  -0.00000
 107        5PZ        -0.00003  -0.00014  -0.00005   0.00136   0.00006
 108        6D 0        0.00001   0.00003   0.00001  -0.00019   0.00000
 109        6D+1       -0.00000  -0.00002   0.00002  -0.00107  -0.00000
 110        6D-1       -0.00001  -0.00004   0.00000  -0.00004  -0.00000
 111        6D+2       -0.00001  -0.00003   0.00001  -0.00060  -0.00000
 112        6D-2       -0.00001  -0.00003  -0.00001   0.00005   0.00001
 113 4   O  1S         -0.00002  -0.00008   0.00009   0.00012   0.97028
 114        2S         -0.00008  -0.00045   0.00007   0.00007  -0.00694
 115        3S          0.00001   0.00002  -0.00001  -0.00001   0.05099
 116        4S          0.00035   0.00196  -0.00007  -0.00007   0.00365
 117        5PX        -0.00000  -0.00000   0.00000  -0.00001  -0.00048
 118        5PY         0.00000   0.00000   0.00001   0.00001   0.00082
 119        5PZ        -0.00000  -0.00000  -0.00001   0.00001   0.00000
 120        6PX        -0.00000  -0.00004   0.00003   0.00006  -0.00076
 121        6PY         0.00000   0.00006  -0.00008  -0.00007   0.00131
 122        6PZ         0.00000   0.00000   0.00006  -0.00006   0.00000
 123        7PX         0.00016   0.00098   0.00009  -0.00026  -0.00176
 124        7PY        -0.00029  -0.00170   0.00025   0.00006   0.00305
 125        7PZ         0.00000   0.00000   0.00016  -0.00016   0.00000
 126        8D 0       -0.00000   0.00001  -0.00002  -0.00002   0.00001
 127        8D+1       -0.00000  -0.00002   0.00000  -0.00000   0.00017
 128        8D-1       -0.00000  -0.00001  -0.00001   0.00000   0.00010
 129        8D+2       -0.00000   0.00000   0.00000  -0.00000  -0.00010
 130        8D-2       -0.00000   0.00001  -0.00000   0.00000  -0.00017
 131        9D 0        0.00002   0.00002   0.00005   0.00005   0.00059
 132        9D+1        0.00003   0.00013  -0.00004   0.00002   0.00048
 133        9D-1        0.00002   0.00007   0.00005  -0.00006   0.00027
 134        9D+2        0.00001  -0.00001  -0.00005   0.00004   0.00021
 135        9D-2        0.00001  -0.00002   0.00002  -0.00003   0.00036
 136       10F 0        0.00000   0.00000  -0.00000   0.00000   0.00000
 137       10F+1       -0.00000  -0.00002   0.00001  -0.00000  -0.00010
 138       10F-1        0.00001   0.00003  -0.00000  -0.00001   0.00018
 139       10F+2       -0.00000  -0.00002   0.00000   0.00001  -0.00021
 140       10F-2        0.00000   0.00001  -0.00001  -0.00000   0.00012
 141       10F+3       -0.00000  -0.00003   0.00000   0.00000  -0.00003
 142       10F-3       -0.00000   0.00000   0.00001  -0.00001   0.00000
 143 5   H  1S         -0.00001  -0.00005  -0.00001  -0.00001   0.00033
 144        2S          0.00003   0.00015   0.00025  -0.00015  -0.00344
 145        3S         -0.00003  -0.00004  -0.00010  -0.00014  -0.00050
 146        4PX        -0.00000  -0.00002   0.00000  -0.00001  -0.00031
 147        4PY        -0.00000  -0.00002  -0.00000   0.00000   0.00025
 148        4PZ        -0.00000  -0.00004   0.00003   0.00000  -0.00026
 149        5PX        -0.00001  -0.00008   0.00007  -0.00002  -0.00117
 150        5PY         0.00006   0.00032  -0.00007   0.00000   0.00045
 151        5PZ         0.00003   0.00014   0.00005  -0.00005  -0.00135
 152        6D 0        0.00001   0.00003   0.00001   0.00000  -0.00018
 153        6D+1        0.00000   0.00000   0.00001  -0.00000  -0.00090
 154        6D-1        0.00001   0.00004  -0.00001  -0.00000   0.00057
 155        6D+2        0.00000   0.00001   0.00000  -0.00001  -0.00035
 156        6D-2        0.00001   0.00004  -0.00001  -0.00000   0.00049
 157 6   O  1S         -0.00002  -0.00008   0.97327   0.01257  -0.00005
 158        2S         -0.00008  -0.00045  -0.00695  -0.00004   0.00006
 159        3S          0.00001   0.00002   0.05114   0.00061  -0.00002
 160        4S          0.00035   0.00196   0.00369   0.00040  -0.00007
 161        5PX        -0.00000  -0.00000  -0.00083  -0.00004  -0.00001
 162        5PY        -0.00000  -0.00000  -0.00048  -0.00002  -0.00001
 163        5PZ         0.00000   0.00000  -0.00000  -0.00000   0.00001
 164        6PX        -0.00000  -0.00006  -0.00131   0.00013   0.00006
 165        6PY        -0.00000  -0.00004  -0.00075   0.00007   0.00005
 166        6PZ        -0.00000  -0.00000   0.00000   0.00000  -0.00006
 167        7PX         0.00029   0.00170  -0.00304   0.00035  -0.00003
 168        7PY         0.00016   0.00098  -0.00175   0.00020  -0.00026
 169        7PZ        -0.00000  -0.00000  -0.00000   0.00000  -0.00017
 170        8D 0       -0.00000   0.00000   0.00002   0.00000  -0.00002
 171        8D+1        0.00000   0.00001  -0.00010   0.00000  -0.00001
 172        8D-1       -0.00000  -0.00002   0.00017  -0.00000  -0.00000
 173        8D+2        0.00000  -0.00000   0.00010  -0.00001   0.00000
 174        8D-2        0.00000  -0.00001   0.00017  -0.00001  -0.00000
 175        9D 0        0.00002   0.00002   0.00060  -0.00004   0.00005
 176        9D+1       -0.00002  -0.00007  -0.00027  -0.00001   0.00006
 177        9D-1        0.00003   0.00012   0.00047   0.00002   0.00002
 178        9D+2       -0.00001   0.00001  -0.00020   0.00005  -0.00005
 179        9D-2       -0.00001   0.00002  -0.00035   0.00009   0.00003
 180       10F 0       -0.00000  -0.00000  -0.00000  -0.00000   0.00000
 181       10F+1       -0.00001  -0.00003  -0.00018  -0.00000   0.00001
 182       10F-1       -0.00000  -0.00002  -0.00010  -0.00000  -0.00000
 183       10F+2        0.00000   0.00002   0.00021   0.00000  -0.00001
 184       10F-2       -0.00000  -0.00001  -0.00012  -0.00000   0.00000
 185       10F+3        0.00000   0.00000   0.00000   0.00000  -0.00001
 186       10F-3        0.00000   0.00003   0.00003   0.00000  -0.00000
 187 7   H  1S         -0.00001  -0.00005   0.00033   0.00001  -0.00001
 188        2S          0.00003   0.00015  -0.00345  -0.00006  -0.00017
 189        3S         -0.00003  -0.00004  -0.00050   0.00016  -0.00013
 190        4PX         0.00000   0.00002  -0.00025   0.00001  -0.00000
 191        4PY        -0.00000  -0.00002  -0.00031  -0.00000  -0.00001
 192        4PZ        -0.00000  -0.00004  -0.00026  -0.00001   0.00000
 193        5PX        -0.00006  -0.00032  -0.00047  -0.00008  -0.00001
 194        5PY        -0.00001  -0.00008  -0.00116  -0.00004  -0.00002
 195        5PZ         0.00003   0.00014  -0.00136   0.00001  -0.00006
 196        6D 0        0.00001   0.00003  -0.00020   0.00000   0.00000
 197        6D+1       -0.00001  -0.00004  -0.00058  -0.00000  -0.00000
 198        6D-1        0.00000   0.00000  -0.00090  -0.00001  -0.00000
 199        6D+2       -0.00000  -0.00001   0.00034  -0.00000   0.00001
 200        6D-2       -0.00001  -0.00004  -0.00049  -0.00001  -0.00000
 201 8   O  1S         -0.00002  -0.00008   0.00010   0.00013  -0.07730
 202        2S         -0.00008  -0.00045   0.00007   0.00007   0.00061
 203        3S          0.00001   0.00002  -0.00001  -0.00001  -0.00411
 204        4S          0.00035   0.00196  -0.00006  -0.00006   0.00005
 205        5PX         0.00000   0.00000   0.00001  -0.00000  -0.00002
 206        5PY        -0.00000  -0.00000  -0.00001  -0.00001   0.00004
 207        5PZ         0.00000   0.00000   0.00001  -0.00001  -0.00000
 208        6PX         0.00000   0.00004  -0.00006  -0.00003  -0.00014
 209        6PY        -0.00000  -0.00006   0.00006   0.00008   0.00025
 210        6PZ        -0.00000  -0.00000  -0.00006   0.00005  -0.00000
 211        7PX        -0.00016  -0.00098   0.00026  -0.00008  -0.00036
 212        7PY         0.00029   0.00170  -0.00005  -0.00025   0.00063
 213        7PZ         0.00000   0.00000  -0.00016   0.00015   0.00000
 214        8D 0       -0.00000   0.00001  -0.00002  -0.00002   0.00000
 215        8D+1        0.00000   0.00002   0.00000  -0.00000   0.00002
 216        8D-1        0.00000   0.00001  -0.00001   0.00001   0.00001
 217        8D+2       -0.00000   0.00000  -0.00000   0.00000   0.00002
 218        8D-2       -0.00000   0.00001   0.00000  -0.00000   0.00003
 219        9D 0        0.00002   0.00002   0.00005   0.00005  -0.00009
 220        9D+1       -0.00003  -0.00013  -0.00002   0.00004   0.00002
 221        9D-1       -0.00002  -0.00007   0.00006  -0.00005   0.00001
 222        9D+2        0.00001  -0.00001   0.00005  -0.00005  -0.00007
 223        9D-2        0.00001  -0.00002  -0.00003   0.00002  -0.00013
 224       10F 0        0.00000   0.00000   0.00000  -0.00000  -0.00000
 225       10F+1        0.00000   0.00002   0.00000  -0.00001  -0.00001
 226       10F-1       -0.00001  -0.00003   0.00001   0.00000   0.00001
 227       10F+2       -0.00000  -0.00002   0.00001   0.00000   0.00002
 228       10F-2        0.00000   0.00001  -0.00000  -0.00001  -0.00001
 229       10F+3        0.00000   0.00003  -0.00000  -0.00000   0.00000
 230       10F-3       -0.00000  -0.00000   0.00001  -0.00001   0.00000
 231 9   H  1S         -0.00001  -0.00005  -0.00001  -0.00001  -0.00002
 232        2S          0.00003   0.00015  -0.00016   0.00025   0.00026
 233        3S         -0.00003  -0.00004  -0.00014  -0.00011   0.00020
 234        4PX         0.00000   0.00002   0.00001  -0.00000  -0.00003
 235        4PY         0.00000   0.00002  -0.00000   0.00000   0.00004
 236        4PZ        -0.00000  -0.00004   0.00000   0.00003   0.00001
 237        5PX         0.00001   0.00007   0.00002  -0.00006  -0.00007
 238        5PY        -0.00006  -0.00032  -0.00001   0.00007  -0.00004
 239        5PZ         0.00003   0.00013  -0.00006   0.00004   0.00014
 240        6D 0        0.00001   0.00003   0.00000   0.00001   0.00002
 241        6D+1       -0.00000  -0.00000   0.00000  -0.00001  -0.00007
 242        6D-1       -0.00001  -0.00004  -0.00000   0.00001   0.00005
 243        6D+2        0.00000   0.00001  -0.00001   0.00000   0.00003
 244        6D-2        0.00001   0.00004  -0.00000  -0.00001  -0.00004
 245 10  H  1S         -0.00001  -0.00005  -0.00001  -0.00001   0.00033
 246        2S          0.00003   0.00015  -0.00015   0.00025  -0.00343
 247        3S         -0.00003  -0.00004  -0.00014  -0.00010  -0.00050
 248        4PX         0.00000   0.00002   0.00000   0.00000  -0.00006
 249        4PY         0.00000   0.00001   0.00001  -0.00000   0.00040
 250        4PZ         0.00000   0.00004  -0.00000  -0.00003   0.00026
 251        5PX        -0.00005  -0.00024   0.00000   0.00003   0.00019
 252        5PY         0.00004   0.00023   0.00002  -0.00010   0.00123
 253        5PZ        -0.00003  -0.00013   0.00005  -0.00004   0.00135
 254        6D 0        0.00001   0.00003   0.00000   0.00001  -0.00019
 255        6D+1        0.00001   0.00004   0.00000  -0.00000   0.00004
 256        6D-1       -0.00000  -0.00002  -0.00000   0.00002  -0.00107
 257        6D+2        0.00001   0.00003   0.00000  -0.00001   0.00060
 258        6D-2        0.00001   0.00003  -0.00001  -0.00000  -0.00006
 259 11  H  1S         -0.00001  -0.00005   0.00000   0.00033  -0.00001
 260        2S          0.00003   0.00015   0.00003  -0.00345   0.00026
 261        3S         -0.00004  -0.00004   0.00017  -0.00049  -0.00009
 262        4PX        -0.00000  -0.00002  -0.00002   0.00025  -0.00000
 263        4PY         0.00000   0.00002  -0.00001   0.00031  -0.00000
 264        4PZ        -0.00000  -0.00004  -0.00000  -0.00026   0.00003
 265        5PX         0.00006   0.00032   0.00007   0.00047  -0.00007
 266        5PY         0.00001   0.00008   0.00001   0.00116  -0.00007
 267        5PZ         0.00003   0.00014   0.00005  -0.00136   0.00005
 268        6D 0        0.00001   0.00003   0.00001  -0.00019   0.00001
 269        6D+1        0.00001   0.00004  -0.00001   0.00058  -0.00001
 270        6D-1       -0.00000  -0.00000  -0.00001   0.00090  -0.00001
 271        6D+2       -0.00000  -0.00001  -0.00001   0.00034  -0.00000
 272        6D-2       -0.00001  -0.00004   0.00000  -0.00049   0.00001
 273 12  H  1S         -0.00001  -0.00005  -0.00001  -0.00001  -0.00002
 274        2S          0.00003   0.00015   0.00025  -0.00015   0.00026
 275        3S         -0.00003  -0.00004  -0.00010  -0.00014   0.00020
 276        4PX        -0.00000  -0.00002  -0.00000  -0.00000  -0.00002
 277        4PY        -0.00000  -0.00001   0.00000  -0.00001   0.00004
 278        4PZ         0.00000   0.00004  -0.00003  -0.00000  -0.00001
 279        5PX         0.00005   0.00024  -0.00003  -0.00001   0.00007
 280        5PY        -0.00004  -0.00023   0.00009  -0.00002   0.00004
 281        5PZ        -0.00003  -0.00013  -0.00005   0.00005  -0.00014
 282        6D 0        0.00001   0.00003   0.00001   0.00000   0.00002
 283        6D+1       -0.00001  -0.00004   0.00000   0.00000   0.00001
 284        6D-1        0.00000   0.00002  -0.00002  -0.00000  -0.00009
 285        6D+2        0.00001   0.00003  -0.00001   0.00000  -0.00005
 286        6D-2        0.00001   0.00003  -0.00000  -0.00001   0.00001
 287 13  H  1S         -0.00001  -0.00005   0.00033   0.00001  -0.00001
 288        2S          0.00003   0.00015  -0.00345  -0.00006   0.00026
 289        3S         -0.00004  -0.00004  -0.00050   0.00016  -0.00009
 290        4PX        -0.00000  -0.00000  -0.00040   0.00001   0.00000
 291        4PY         0.00000   0.00002  -0.00006   0.00001  -0.00000
 292        4PZ         0.00000   0.00004   0.00026   0.00001  -0.00003
 293        5PX        -0.00004  -0.00023  -0.00124  -0.00008   0.00010
 294        5PY        -0.00005  -0.00024   0.00018  -0.00005   0.00003
 295        5PZ        -0.00003  -0.00014   0.00136  -0.00001  -0.00005
 296        6D 0        0.00001   0.00003  -0.00019   0.00000   0.00001
 297        6D+1        0.00000   0.00002   0.00107   0.00001  -0.00002
 298        6D-1        0.00001   0.00004   0.00005  -0.00000  -0.00000
 299        6D+2       -0.00001  -0.00003  -0.00060  -0.00001   0.00001
 300        6D-2       -0.00001  -0.00003   0.00005  -0.00001   0.00000
                           6         7         8         9        10
                           O         O         O         O         O
     Eigenvalues --   -19.16797 -16.80156 -16.80153 -16.78301  -2.61382
   1 1   Ti 1S          0.00000   0.00000  -0.00000   0.00000   0.10504
   2        2S         -0.00001  -0.00000   0.00000  -0.00000  -0.41364
   3        3S          0.00001   0.00000  -0.00000   0.00000   0.58119
   4        4S          0.00321   0.00000  -0.00000  -0.00000  -0.04005
   5        5S          0.00174   0.00000   0.00000  -0.00000  -0.02805
   6        6S          0.00008  -0.00000  -0.00000  -0.00000   0.53235
   7        7S          0.00027  -0.00000  -0.00000  -0.00000  -0.00360
   8        8PX        -0.00002   0.99596   0.10005  -0.00015   0.00000
   9        8PY         0.00003  -0.10005   0.99596  -0.00017   0.00000
  10        8PZ        -0.00000   0.00014   0.00019   1.00096  -0.00000
  11        9PX        -0.00060   0.01051   0.00106  -0.00000  -0.00000
  12        9PY         0.00104  -0.00106   0.01051  -0.00000   0.00000
  13        9PZ        -0.00000   0.00000   0.00000   0.00636  -0.00000
  14       10PX        -0.00127   0.01367   0.00137  -0.00000  -0.00000
  15       10PY         0.00222  -0.00137   0.01367  -0.00000   0.00000
  16       10PZ        -0.00000  -0.00000   0.00000   0.00428   0.00000
  17       11PX         0.00039  -0.00110  -0.00011  -0.00000  -0.00000
  18       11PY        -0.00068   0.00011  -0.00110   0.00000  -0.00000
  19       11PZ         0.00000   0.00000   0.00000   0.00089   0.00000
  20       12PX        -0.00027   0.00696   0.00070  -0.00000  -0.00000
  21       12PY         0.00046  -0.00070   0.00696  -0.00000   0.00000
  22       12PZ        -0.00000   0.00000   0.00000   0.00534  -0.00000
  23       13PX         0.00006  -0.00090  -0.00009   0.00000   0.00000
  24       13PY        -0.00010   0.00009  -0.00090  -0.00000   0.00000
  25       13PZ         0.00000  -0.00000  -0.00000  -0.00053   0.00000
  26       14D 0       -0.00015   0.00000  -0.00000   0.00000  -0.00400
  27       14D+1        0.00001   0.00001  -0.00008   0.00000   0.00000
  28       14D-1        0.00001   0.00008   0.00001   0.00000   0.00000
  29       14D+2       -0.00003   0.00000  -0.00000  -0.00000   0.00000
  30       14D-2       -0.00005  -0.00000   0.00000   0.00000   0.00000
  31       15D 0       -0.00066  -0.00000   0.00000  -0.00000   0.01165
  32       15D+1        0.00000  -0.00003   0.00031   0.00000  -0.00000
  33       15D-1        0.00000  -0.00031  -0.00003  -0.00000  -0.00000
  34       15D+2       -0.00063  -0.00000  -0.00000   0.00000   0.00001
  35       15D-2       -0.00109   0.00000  -0.00000  -0.00001   0.00001
  36       16D 0        0.00005  -0.00000   0.00000   0.00000  -0.00956
  37       16D+1       -0.00000  -0.00000   0.00004   0.00000   0.00000
  38       16D-1       -0.00000  -0.00004  -0.00000  -0.00000   0.00000
  39       16D+2        0.00001  -0.00000   0.00000   0.00000   0.00001
  40       16D-2        0.00002   0.00000  -0.00000  -0.00000   0.00000
  41       17D 0        0.00007   0.00000   0.00000  -0.00000  -0.00256
  42       17D+1       -0.00005   0.00002  -0.00019  -0.00000   0.00000
  43       17D-1       -0.00003   0.00019   0.00002   0.00000  -0.00000
  44       17D+2        0.00016   0.00000  -0.00000  -0.00000  -0.00000
  45       17D-2        0.00027  -0.00000   0.00000  -0.00000   0.00000
  46       18F 0        0.00000  -0.00000  -0.00000  -0.00008  -0.00000
  47       18F+1        0.00003  -0.00043  -0.00004   0.00000  -0.00000
  48       18F-1       -0.00004   0.00004  -0.00043   0.00000   0.00000
  49       18F+2        0.00002   0.00000  -0.00000   0.00000  -0.00000
  50       18F-2       -0.00001   0.00000   0.00000   0.00000   0.00000
  51       18F+3        0.00007  -0.00014   0.00020   0.00000   0.00000
  52       18F-3       -0.00000   0.00020   0.00014   0.00000  -0.00000
  53       19F 0       -0.00000  -0.00000  -0.00000   0.00056   0.00000
  54       19F+1       -0.00029   0.00190   0.00019  -0.00000  -0.00000
  55       19F-1        0.00050  -0.00019   0.00190  -0.00000   0.00000
  56       19F+2       -0.00006  -0.00000   0.00000  -0.00000  -0.00000
  57       19F-2        0.00004  -0.00000  -0.00000  -0.00000   0.00000
  58       19F+3       -0.00076   0.00121  -0.00170  -0.00000  -0.00000
  59       19F-3        0.00000  -0.00170  -0.00121  -0.00000   0.00000
  60       20G 0        0.00009   0.00000  -0.00000   0.00000   0.00389
  61       20G+1        0.00000   0.00000  -0.00001  -0.00000  -0.00000
  62       20G-1        0.00000   0.00001   0.00000   0.00000  -0.00000
  63       20G+2        0.00007   0.00000   0.00000  -0.00000   0.00000
  64       20G-2        0.00012  -0.00000   0.00000   0.00000  -0.00000
  65       20G+3       -0.00000  -0.00002  -0.00001  -0.00000   0.00000
  66       20G-3        0.00001  -0.00001   0.00002  -0.00000  -0.00000
  67       20G+4       -0.00009  -0.00000   0.00000  -0.00002  -0.00047
  68       20G-4        0.00015   0.00000   0.00000  -0.00001   0.00083
  69 2   O  1S         -0.00011  -0.00011  -0.00008   0.00000  -0.00172
  70        2S          0.00007  -0.00065  -0.00046   0.00000   0.00176
  71        3S         -0.00002  -0.00004  -0.00003  -0.00000   0.00046
  72        4S         -0.00008   0.00307   0.00220   0.00000   0.01024
  73        5PX         0.00001   0.00006   0.00006  -0.00000  -0.00136
  74        5PY         0.00001   0.00005   0.00001   0.00001  -0.00078
  75        5PZ         0.00001  -0.00000   0.00000  -0.00006  -0.00000
  76        6PX        -0.00007  -0.00032  -0.00031   0.00008  -0.00151
  77        6PY        -0.00006  -0.00027  -0.00006  -0.00013  -0.00087
  78        6PZ        -0.00005   0.00003  -0.00004   0.00043  -0.00000
  79        7PX         0.00007  -0.00429  -0.00335   0.00050  -0.00890
  80        7PY         0.00025  -0.00277  -0.00151  -0.00086  -0.00512
  81        7PZ        -0.00014   0.00030  -0.00042   0.00167  -0.00000
  82        8D 0       -0.00002  -0.00002  -0.00001   0.00000  -0.00013
  83        8D+1        0.00000  -0.00002  -0.00001   0.00001  -0.00002
  84        8D-1        0.00000   0.00003   0.00002   0.00001   0.00004
  85        8D+2        0.00000   0.00000  -0.00001  -0.00001   0.00012
  86        8D-2       -0.00000  -0.00001   0.00000   0.00000   0.00020
  87        9D 0        0.00006   0.00007   0.00005  -0.00000  -0.00017
  88        9D+1       -0.00005   0.00014   0.00004   0.00015   0.00031
  89        9D-1       -0.00002  -0.00018  -0.00017   0.00008  -0.00054
  90        9D+2       -0.00004   0.00005   0.00006   0.00016   0.00035
  91        9D-2        0.00003   0.00011   0.00007  -0.00010   0.00060
  92       10F 0        0.00000  -0.00000   0.00001  -0.00001  -0.00000
  93       10F+1       -0.00001   0.00005   0.00003   0.00002   0.00023
  94       10F-1        0.00000   0.00002   0.00002  -0.00003   0.00013
  95       10F+2       -0.00001   0.00002   0.00001   0.00001   0.00008
  96       10F-2        0.00000  -0.00001  -0.00001   0.00001  -0.00004
  97       10F+3        0.00001  -0.00001   0.00001   0.00001  -0.00000
  98       10F-3        0.00000  -0.00004  -0.00003  -0.00000  -0.00024
  99 3   H  1S         -0.00001  -0.00009  -0.00008   0.00007  -0.00007
 100        2S          0.00024   0.00059   0.00092  -0.00155   0.00062
 101        3S         -0.00011   0.00033   0.00059  -0.00033   0.00029
 102        4PX         0.00000  -0.00000  -0.00001   0.00003   0.00001
 103        4PY        -0.00000  -0.00006  -0.00003  -0.00002  -0.00010
 104        4PZ        -0.00003   0.00007   0.00006   0.00006   0.00019
 105        5PX        -0.00009   0.00044   0.00016   0.00056   0.00125
 106        5PY        -0.00003   0.00064   0.00039   0.00013   0.00113
 107        5PZ        -0.00004  -0.00052  -0.00054   0.00030  -0.00061
 108        6D 0        0.00001   0.00010   0.00008  -0.00002   0.00013
 109        6D+1        0.00002  -0.00000   0.00003  -0.00008  -0.00014
 110        6D-1        0.00000  -0.00008  -0.00005  -0.00001  -0.00012
 111        6D+2        0.00001  -0.00006  -0.00004  -0.00005  -0.00020
 112        6D-2        0.00000  -0.00007  -0.00006  -0.00001  -0.00014
 113 4   O  1S          0.07733   0.00008  -0.00011  -0.00000  -0.00172
 114        2S         -0.00050   0.00046  -0.00065  -0.00000   0.00176
 115        3S          0.00402   0.00003  -0.00004   0.00000   0.00046
 116        4S          0.00064  -0.00221   0.00307  -0.00001   0.01024
 117        5PX        -0.00005   0.00001  -0.00005  -0.00001   0.00078
 118        5PY         0.00009  -0.00006   0.00006  -0.00000  -0.00136
 119        5PZ         0.00000  -0.00000  -0.00000  -0.00006  -0.00000
 120        6PX         0.00002  -0.00006   0.00027   0.00014   0.00087
 121        6PY        -0.00004   0.00031  -0.00032   0.00008  -0.00151
 122        6PZ         0.00000   0.00004   0.00003   0.00042   0.00000
 123        7PX         0.00009  -0.00151   0.00277   0.00087   0.00514
 124        7PY        -0.00015   0.00335  -0.00429   0.00050  -0.00891
 125        7PZ         0.00000   0.00042   0.00030   0.00165   0.00001
 126        8D 0        0.00001   0.00001  -0.00002  -0.00000  -0.00013
 127        8D+1        0.00001   0.00002  -0.00003  -0.00001  -0.00004
 128        8D-1        0.00001   0.00001  -0.00002   0.00001  -0.00002
 129        8D+2        0.00000  -0.00001  -0.00000   0.00001  -0.00012
 130        8D-2        0.00000   0.00000   0.00001  -0.00000  -0.00020
 131        9D 0        0.00000  -0.00005   0.00007   0.00000  -0.00018
 132        9D+1        0.00005  -0.00017   0.00018  -0.00008   0.00055
 133        9D-1        0.00003  -0.00004   0.00014   0.00015   0.00032
 134        9D+2       -0.00004   0.00006  -0.00005  -0.00016  -0.00035
 135        9D-2       -0.00007   0.00007  -0.00011   0.00010  -0.00060
 136       10F 0        0.00000  -0.00001  -0.00000  -0.00001   0.00000
 137       10F+1       -0.00001   0.00002  -0.00002   0.00003  -0.00013
 138       10F-1        0.00001  -0.00003   0.00005   0.00002   0.00023
 139       10F+2       -0.00002   0.00001  -0.00002  -0.00001  -0.00008
 140       10F-2        0.00001  -0.00001   0.00001  -0.00001   0.00004
 141       10F+3       -0.00001   0.00003  -0.00004   0.00000  -0.00025
 142       10F-3        0.00000   0.00001   0.00001  -0.00001   0.00000
 143 5   H  1S          0.00003   0.00006  -0.00011  -0.00007  -0.00007
 144        2S         -0.00029  -0.00026   0.00107   0.00155   0.00064
 145        3S          0.00012  -0.00013   0.00067   0.00033   0.00029
 146        4PX        -0.00002   0.00003  -0.00001   0.00003  -0.00006
 147        4PY         0.00000   0.00004  -0.00005   0.00000  -0.00008
 148        4PZ        -0.00003   0.00005  -0.00008   0.00006  -0.00019
 149        5PX        -0.00012   0.00007   0.00004   0.00042  -0.00050
 150        5PY         0.00011  -0.00061   0.00065  -0.00039   0.00161
 151        5PZ        -0.00008  -0.00032   0.00067   0.00030   0.00061
 152        6D 0       -0.00001  -0.00007   0.00011   0.00002   0.00013
 153        6D+1       -0.00007  -0.00002   0.00006   0.00006  -0.00006
 154        6D-1        0.00004  -0.00006   0.00005  -0.00005   0.00018
 155        6D+2       -0.00002  -0.00002   0.00004   0.00002   0.00002
 156        6D-2        0.00004  -0.00007   0.00009  -0.00005   0.00024
 157 6   O  1S         -0.00007   0.00011   0.00008  -0.00000  -0.00172
 158        2S          0.00007   0.00065   0.00046  -0.00000   0.00176
 159        3S         -0.00002   0.00004   0.00003   0.00000   0.00046
 160        4S         -0.00008  -0.00307  -0.00220   0.00000   0.01024
 161        5PX        -0.00001   0.00006   0.00006   0.00000   0.00136
 162        5PY        -0.00000   0.00005   0.00001  -0.00001   0.00078
 163        5PZ        -0.00001   0.00000  -0.00000  -0.00006  -0.00000
 164        6PX         0.00009  -0.00032  -0.00031  -0.00008   0.00151
 165        6PY         0.00003  -0.00027  -0.00006   0.00013   0.00087
 166        6PZ         0.00005  -0.00003   0.00004   0.00043  -0.00000
 167        7PX        -0.00025  -0.00429  -0.00335  -0.00049   0.00891
 168        7PY         0.00006  -0.00277  -0.00152   0.00086   0.00513
 169        7PZ         0.00014  -0.00030   0.00042   0.00166   0.00000
 170        8D 0       -0.00002   0.00002   0.00001   0.00000  -0.00013
 171        8D+1        0.00001  -0.00002  -0.00001  -0.00001   0.00002
 172        8D-1        0.00000   0.00003   0.00002  -0.00001  -0.00004
 173        8D+2       -0.00000  -0.00000   0.00001  -0.00001   0.00012
 174        8D-2        0.00000   0.00001  -0.00000   0.00000   0.00020
 175        9D 0        0.00006  -0.00007  -0.00005  -0.00000  -0.00017
 176        9D+1       -0.00004   0.00014   0.00004  -0.00015  -0.00031
 177        9D-1       -0.00004  -0.00018  -0.00017  -0.00008   0.00054
 178        9D+2        0.00004  -0.00005  -0.00006   0.00016   0.00035
 179        9D-2       -0.00002  -0.00012  -0.00007  -0.00010   0.00060
 180       10F 0       -0.00000   0.00000  -0.00001  -0.00001  -0.00000
 181       10F+1        0.00000   0.00005   0.00003  -0.00002  -0.00023
 182       10F-1        0.00001   0.00002   0.00002   0.00003  -0.00013
 183       10F+2       -0.00000  -0.00002  -0.00001   0.00001   0.00008
 184       10F-2        0.00001   0.00001   0.00001   0.00001  -0.00004
 185       10F+3        0.00001  -0.00001   0.00001  -0.00001   0.00000
 186       10F-3       -0.00000  -0.00004  -0.00003   0.00000   0.00024
 187 7   H  1S         -0.00001   0.00011   0.00006  -0.00007  -0.00007
 188        2S          0.00024  -0.00106  -0.00027   0.00155   0.00063
 189        3S         -0.00011  -0.00067  -0.00013   0.00034   0.00029
 190        4PX         0.00000  -0.00005  -0.00004  -0.00000   0.00008
 191        4PY        -0.00000   0.00001   0.00003   0.00003  -0.00006
 192        4PZ         0.00003   0.00008   0.00005   0.00006  -0.00020
 193        5PX         0.00007   0.00064   0.00060   0.00039  -0.00161
 194        5PY         0.00007  -0.00003   0.00007   0.00041  -0.00052
 195        5PZ         0.00004  -0.00068  -0.00032   0.00030   0.00061
 196        6D 0        0.00001  -0.00011  -0.00007   0.00002   0.00013
 197        6D+1        0.00001   0.00005   0.00006   0.00005  -0.00018
 198        6D-1        0.00001  -0.00006  -0.00002   0.00006  -0.00006
 199        6D+2       -0.00000   0.00004   0.00002  -0.00002  -0.00002
 200        6D-2        0.00001   0.00009   0.00006   0.00005  -0.00024
 201 8   O  1S          0.97028  -0.00008   0.00011  -0.00000  -0.00172
 202        2S         -0.00693  -0.00046   0.00065  -0.00000   0.00176
 203        3S          0.05098  -0.00003   0.00004   0.00000   0.00046
 204        4S          0.00371   0.00220  -0.00307  -0.00000   0.01024
 205        5PX         0.00048   0.00001  -0.00005   0.00001  -0.00078
 206        5PY        -0.00083  -0.00006   0.00006   0.00000   0.00136
 207        5PZ         0.00000   0.00000   0.00000  -0.00006  -0.00000
 208        6PX         0.00074  -0.00006   0.00027  -0.00014  -0.00087
 209        6PY        -0.00129   0.00031  -0.00032  -0.00008   0.00151
 210        6PZ         0.00000  -0.00004  -0.00003   0.00042   0.00000
 211        7PX         0.00172  -0.00151   0.00277  -0.00087  -0.00513
 212        7PY        -0.00299   0.00335  -0.00429  -0.00050   0.00891
 213        7PZ        -0.00000  -0.00042  -0.00031   0.00165   0.00001
 214        8D 0        0.00001  -0.00001   0.00002  -0.00000  -0.00013
 215        8D+1       -0.00017   0.00002  -0.00003   0.00001   0.00004
 216        8D-1       -0.00010   0.00001  -0.00002  -0.00001   0.00002
 217        8D+2       -0.00010   0.00001   0.00000   0.00001  -0.00012
 218        8D-2       -0.00016  -0.00000  -0.00001  -0.00000  -0.00020
 219        9D 0        0.00058   0.00005  -0.00006   0.00000  -0.00019
 220        9D+1       -0.00048  -0.00017   0.00018   0.00008  -0.00055
 221        9D-1       -0.00028  -0.00004   0.00015  -0.00015  -0.00032
 222        9D+2        0.00020  -0.00006   0.00005  -0.00017  -0.00035
 223        9D-2        0.00035  -0.00007   0.00011   0.00010  -0.00060
 224       10F 0        0.00000   0.00001   0.00000  -0.00001   0.00000
 225       10F+1        0.00010   0.00002  -0.00002  -0.00003   0.00013
 226       10F-1       -0.00017  -0.00003   0.00005  -0.00002  -0.00023
 227       10F+2       -0.00021  -0.00001   0.00002  -0.00001  -0.00008
 228       10F-2        0.00012   0.00001  -0.00001  -0.00001   0.00004
 229       10F+3        0.00003   0.00003  -0.00004   0.00000   0.00025
 230       10F-3       -0.00000   0.00001   0.00001   0.00001  -0.00000
 231 9   H  1S          0.00033  -0.00006   0.00011  -0.00007  -0.00007
 232        2S         -0.00344   0.00026  -0.00107   0.00155   0.00064
 233        3S         -0.00048   0.00013  -0.00067   0.00033   0.00029
 234        4PX         0.00031   0.00003  -0.00001  -0.00003   0.00006
 235        4PY        -0.00025   0.00004  -0.00005  -0.00000   0.00008
 236        4PZ        -0.00026  -0.00005   0.00008   0.00006  -0.00019
 237        5PX         0.00117   0.00007   0.00004  -0.00042   0.00050
 238        5PY        -0.00046  -0.00061   0.00065   0.00039  -0.00161
 239        5PZ        -0.00134   0.00031  -0.00067   0.00030   0.00061
 240        6D 0       -0.00018   0.00007  -0.00011   0.00002   0.00013
 241        6D+1        0.00090  -0.00002   0.00006  -0.00006   0.00006
 242        6D-1       -0.00057  -0.00006   0.00005   0.00005  -0.00018
 243        6D+2       -0.00035   0.00002  -0.00004   0.00002   0.00002
 244        6D-2        0.00049   0.00007  -0.00009  -0.00005   0.00024
 245 10  H  1S          0.00003   0.00008  -0.00009   0.00007  -0.00007
 246        2S         -0.00029  -0.00092   0.00059  -0.00154   0.00062
 247        3S          0.00012  -0.00059   0.00033  -0.00034   0.00028
 248        4PX         0.00001  -0.00003   0.00006   0.00002   0.00010
 249        4PY         0.00002   0.00001  -0.00000   0.00003   0.00002
 250        4PZ         0.00003  -0.00006   0.00007   0.00006   0.00020
 251        5PX        -0.00004   0.00039  -0.00065  -0.00013  -0.00113
 252        5PY         0.00016  -0.00016   0.00044   0.00055   0.00125
 253        5PZ         0.00008   0.00054  -0.00052   0.00030  -0.00061
 254        6D 0       -0.00001  -0.00008   0.00010  -0.00002   0.00013
 255        6D+1       -0.00000  -0.00005   0.00008   0.00001   0.00012
 256        6D-1       -0.00008  -0.00003  -0.00000  -0.00008  -0.00014
 257        6D+2        0.00005  -0.00004   0.00006   0.00005   0.00020
 258        6D-2        0.00000  -0.00006   0.00007   0.00000   0.00014
 259 11  H  1S         -0.00001  -0.00011  -0.00006  -0.00007  -0.00007
 260        2S         -0.00013   0.00106   0.00027   0.00155   0.00062
 261        3S         -0.00015   0.00067   0.00013   0.00034   0.00028
 262        4PX         0.00000  -0.00005  -0.00004   0.00000  -0.00008
 263        4PY         0.00001   0.00001   0.00003  -0.00003   0.00006
 264        4PZ         0.00001  -0.00008  -0.00005   0.00006  -0.00020
 265        5PX        -0.00000   0.00065   0.00060  -0.00039   0.00161
 266        5PY         0.00001  -0.00003   0.00007  -0.00041   0.00052
 267        5PZ        -0.00005   0.00068   0.00032   0.00030   0.00061
 268        6D 0        0.00000   0.00011   0.00007   0.00002   0.00013
 269        6D+1       -0.00000   0.00005   0.00006  -0.00005   0.00018
 270        6D-1       -0.00000  -0.00006  -0.00002  -0.00006   0.00006
 271        6D+2        0.00001  -0.00004  -0.00002  -0.00002  -0.00002
 272        6D-2        0.00000  -0.00009  -0.00006   0.00005  -0.00024
 273 12  H  1S          0.00033  -0.00008   0.00009   0.00007  -0.00007
 274        2S         -0.00343   0.00092  -0.00058  -0.00155   0.00062
 275        3S         -0.00048   0.00059  -0.00033  -0.00034   0.00028
 276        4PX         0.00006  -0.00003   0.00006  -0.00002  -0.00010
 277        4PY        -0.00040   0.00001  -0.00000  -0.00003  -0.00002
 278        4PZ         0.00026   0.00006  -0.00007   0.00006   0.00019
 279        5PX        -0.00019   0.00039  -0.00065   0.00013   0.00113
 280        5PY        -0.00125  -0.00016   0.00044  -0.00056  -0.00125
 281        5PZ         0.00134  -0.00054   0.00051   0.00030  -0.00060
 282        6D 0       -0.00019   0.00008  -0.00010  -0.00002   0.00013
 283        6D+1       -0.00004  -0.00005   0.00008  -0.00001  -0.00012
 284        6D-1        0.00107  -0.00003  -0.00000   0.00008   0.00014
 285        6D+2        0.00060   0.00004  -0.00006   0.00005   0.00020
 286        6D-2       -0.00006   0.00006  -0.00007   0.00000   0.00014
 287 13  H  1S         -0.00001   0.00009   0.00008   0.00007  -0.00007
 288        2S         -0.00013  -0.00059  -0.00092  -0.00155   0.00062
 289        3S         -0.00015  -0.00033  -0.00059  -0.00033   0.00028
 290        4PX        -0.00001  -0.00000  -0.00001  -0.00003  -0.00001
 291        4PY         0.00000  -0.00006  -0.00003   0.00002   0.00010
 292        4PZ        -0.00001  -0.00007  -0.00006   0.00006   0.00019
 293        5PX        -0.00001   0.00044   0.00017  -0.00055  -0.00125
 294        5PY         0.00001   0.00064   0.00039  -0.00013  -0.00113
 295        5PZ         0.00005   0.00052   0.00054   0.00030  -0.00061
 296        6D 0        0.00000  -0.00010  -0.00008  -0.00002   0.00013
 297        6D+1       -0.00000  -0.00000   0.00003   0.00008   0.00014
 298        6D-1       -0.00000  -0.00008  -0.00005   0.00001   0.00012
 299        6D+2       -0.00000   0.00006   0.00004  -0.00005  -0.00020
 300        6D-2        0.00001   0.00007   0.00006  -0.00001  -0.00014
                          11        12        13        14        15
                           O         O         O         O         O
     Eigenvalues --    -1.77087  -1.77084  -1.72501  -1.33951  -1.33343
   1 1   Ti 1S         -0.00000   0.00000  -0.00000  -0.00705  -0.00005
   2        2S          0.00000  -0.00000   0.00000   0.02616   0.00017
   3        3S         -0.00000   0.00000  -0.00001  -0.05812  -0.00038
   4        4S         -0.00000  -0.00000   0.00001   0.01479   0.00008
   5        5S         -0.00000  -0.00000   0.00002   0.02033   0.00013
   6        6S         -0.00000  -0.00000   0.00001  -0.02633  -0.00017
   7        7S          0.00000   0.00000   0.00000   0.00599   0.00004
   8        8PX         0.32536  -0.09481  -0.00003  -0.00003   0.00007
   9        8PY         0.09481   0.32537  -0.00004  -0.00002   0.00005
  10        8PZ         0.00004   0.00003   0.34155   0.00000   0.00000
  11        9PX        -0.43786   0.12760   0.00004   0.00004  -0.00009
  12        9PY        -0.12760  -0.43787   0.00006   0.00002  -0.00006
  13        9PZ        -0.00005  -0.00004  -0.46002   0.00000  -0.00001
  14       10PX         0.01991  -0.00579   0.00000   0.00000  -0.00001
  15       10PY         0.00580   0.01991   0.00000   0.00000  -0.00001
  16       10PZ         0.00000   0.00000   0.03354   0.00001  -0.00000
  17       11PX        -0.00232   0.00067   0.00000  -0.00000   0.00000
  18       11PY        -0.00068  -0.00232  -0.00000   0.00000   0.00000
  19       11PZ        -0.00000  -0.00000  -0.00574   0.00000   0.00000
  20       12PX         0.60138  -0.17525  -0.00005  -0.00007   0.00015
  21       12PY         0.17524   0.60138  -0.00007  -0.00003   0.00010
  22       12PZ         0.00008   0.00006   0.63180   0.00001   0.00001
  23       13PX         0.00010  -0.00003  -0.00000  -0.00000   0.00001
  24       13PY         0.00003   0.00010   0.00000   0.00000   0.00000
  25       13PZ         0.00000   0.00000  -0.00094   0.00000  -0.00000
  26       14D 0       -0.00000   0.00000   0.00000  -0.01487  -0.00010
  27       14D+1        0.00001   0.00004   0.00000  -0.00000  -0.00000
  28       14D-1       -0.00004   0.00001  -0.00000   0.00000   0.00000
  29       14D+2        0.00000   0.00000   0.00000   0.00009  -0.01382
  30       14D-2        0.00000   0.00000  -0.00000   0.00016  -0.02378
  31       15D 0        0.00000  -0.00000   0.00000   0.00270   0.00003
  32       15D+1        0.00007   0.00024  -0.00000   0.00000  -0.00000
  33       15D-1       -0.00024   0.00007   0.00000   0.00000   0.00000
  34       15D+2        0.00000   0.00000  -0.00000  -0.00006   0.00838
  35       15D-2        0.00000   0.00000   0.00001  -0.00013   0.01442
  36       16D 0        0.00000  -0.00000   0.00000  -0.01123  -0.00007
  37       16D+1       -0.00000  -0.00000   0.00000  -0.00000  -0.00000
  38       16D-1        0.00000  -0.00000   0.00000   0.00000   0.00000
  39       16D+2       -0.00000   0.00000   0.00000   0.00007  -0.01075
  40       16D-2        0.00000  -0.00000  -0.00000   0.00012  -0.01850
  41       17D 0       -0.00000  -0.00000  -0.00000   0.00080   0.00001
  42       17D+1        0.00008   0.00029   0.00000   0.00000   0.00000
  43       17D-1       -0.00029   0.00009  -0.00000  -0.00000  -0.00000
  44       17D+2       -0.00000   0.00000   0.00001   0.00001  -0.00126
  45       17D-2       -0.00000  -0.00000   0.00001   0.00003  -0.00217
  46       18F 0        0.00000   0.00000  -0.00104  -0.00000  -0.00000
  47       18F+1        0.00778  -0.00227   0.00000   0.00000  -0.00000
  48       18F-1        0.00227   0.00778   0.00000   0.00000  -0.00000
  49       18F+2       -0.00000   0.00000  -0.00000   0.00000  -0.00013
  50       18F-2       -0.00000  -0.00000  -0.00000  -0.00000   0.00008
  51       18F+3        0.00029  -0.00122   0.00000   0.00000   0.00000
  52       18F-3       -0.00123  -0.00029   0.00000  -0.00000   0.00000
  53       19F 0        0.00000   0.00000  -0.00297   0.00000  -0.00000
  54       19F+1        0.00118  -0.00034   0.00000   0.00000  -0.00001
  55       19F-1        0.00034   0.00118   0.00000   0.00000  -0.00001
  56       19F+2        0.00000   0.00000   0.00000  -0.00000   0.00073
  57       19F-2        0.00000   0.00000   0.00000   0.00000  -0.00042
  58       19F+3       -0.00017   0.00075  -0.00000  -0.00000   0.00000
  59       19F-3        0.00074   0.00017  -0.00000  -0.00000   0.00002
  60       20G 0        0.00000  -0.00000   0.00000   0.00157   0.00001
  61       20G+1        0.00000   0.00000   0.00000  -0.00000   0.00000
  62       20G-1       -0.00000   0.00000  -0.00000  -0.00000  -0.00000
  63       20G+2        0.00000  -0.00000   0.00000  -0.00001   0.00117
  64       20G-2       -0.00000  -0.00000  -0.00000  -0.00001   0.00201
  65       20G+3        0.00014   0.00003   0.00000   0.00000   0.00000
  66       20G-3        0.00003  -0.00014  -0.00000   0.00000  -0.00000
  67       20G+4       -0.00000  -0.00000   0.00015  -0.00105  -0.00001
  68       20G-4       -0.00000   0.00000   0.00009   0.00184   0.00001
  69 2   O  1S          0.01234   0.00300  -0.00000  -0.10531   0.10459
  70        2S         -0.02588  -0.00630   0.00000   0.23889  -0.23742
  71        3S         -0.00663  -0.00161   0.00000   0.07255  -0.07232
  72        4S         -0.02146  -0.00522   0.00001   0.14863  -0.14773
  73        5PX         0.00682   0.00239  -0.00004   0.01930  -0.02015
  74        5PY         0.00431  -0.00022   0.00007   0.01107  -0.01156
  75        5PZ        -0.00003   0.00011  -0.00158  -0.00002   0.00003
  76        6PX         0.00991   0.00333   0.00003   0.02102  -0.02197
  77        6PY         0.00620  -0.00009  -0.00006   0.01205  -0.01260
  78        6PZ         0.00013  -0.00055  -0.00208  -0.00003   0.00003
  79        7PX         0.00856   0.00226  -0.00063  -0.00496   0.00944
  80        7PY         0.00503   0.00090   0.00108  -0.00288   0.00545
  81        7PZ         0.00029  -0.00121  -0.00366  -0.00001   0.00000
  82        8D 0        0.00018   0.00004  -0.00000   0.00034  -0.00029
  83        8D+1       -0.00002   0.00002  -0.00005   0.00056  -0.00055
  84        8D-1        0.00001   0.00002  -0.00003  -0.00098   0.00095
  85        8D+2       -0.00018  -0.00003  -0.00001   0.00033  -0.00036
  86        8D-2       -0.00030  -0.00008   0.00000   0.00057  -0.00062
  87        9D 0        0.00270   0.00066   0.00000  -0.00057  -0.00009
  88        9D+1       -0.00009  -0.00047   0.00193   0.00160  -0.00168
  89        9D-1        0.00040  -0.00016   0.00111  -0.00278   0.00292
  90        9D+2       -0.00205  -0.00244   0.00002   0.00185  -0.00188
  91        9D-2       -0.00456   0.00002  -0.00001   0.00317  -0.00322
  92       10F 0       -0.00002   0.00007   0.00022  -0.00000   0.00000
  93       10F+1       -0.00058  -0.00021  -0.00001   0.00090  -0.00087
  94       10F-1       -0.00037   0.00003   0.00002   0.00052  -0.00050
  95       10F+2       -0.00009  -0.00004  -0.00012   0.00106  -0.00105
  96       10F-2        0.00006  -0.00002  -0.00021  -0.00062   0.00061
  97       10F+3       -0.00008   0.00032   0.00006   0.00000  -0.00000
  98       10F-3        0.00077   0.00019  -0.00000  -0.00004   0.00019
  99 3   H  1S         -0.00206  -0.00024  -0.00068   0.04371  -0.04360
 100        2S         -0.00070   0.00167   0.00122   0.03523  -0.03805
 101        3S         -0.00099  -0.00045   0.00067   0.00296  -0.00250
 102        4PX         0.00052   0.00001   0.00024  -0.00503   0.00496
 103        4PY         0.00030   0.00005  -0.00005   0.00041  -0.00032
 104        4PZ         0.00003  -0.00023   0.00014  -0.00492   0.00492
 105        5PX        -0.00048  -0.00063  -0.00053  -0.00385   0.00406
 106        5PY        -0.00036  -0.00022  -0.00035   0.00077  -0.00189
 107        5PZ         0.00015  -0.00050   0.00005  -0.00513   0.00611
 108        6D 0        0.00018   0.00022  -0.00001   0.00034  -0.00049
 109        6D+1       -0.00006   0.00008  -0.00004   0.00142  -0.00144
 110        6D-1       -0.00027  -0.00000   0.00007  -0.00006   0.00016
 111        6D+2       -0.00016   0.00002   0.00007   0.00070  -0.00071
 112        6D-2       -0.00006   0.00001   0.00014  -0.00009   0.00020
 113 4   O  1S         -0.00300   0.01234   0.00000  -0.10404  -0.10629
 114        2S          0.00630  -0.02588   0.00000   0.23601   0.24128
 115        3S          0.00161  -0.00663  -0.00000   0.07167   0.07349
 116        4S          0.00521  -0.02148   0.00001   0.14673   0.15010
 117        5PX        -0.00022  -0.00431  -0.00007  -0.01103  -0.01184
 118        5PY        -0.00239   0.00682  -0.00004   0.01902   0.02043
 119        5PZ        -0.00011  -0.00003  -0.00158   0.00007   0.00008
 120        6PX        -0.00008  -0.00619   0.00006  -0.01202  -0.01292
 121        6PY        -0.00333   0.00992   0.00004   0.02070   0.02227
 122        6PZ         0.00055   0.00013  -0.00208   0.00010   0.00010
 123        7PX         0.00091  -0.00502  -0.00109   0.00278   0.00547
 124        7PY        -0.00226   0.00856  -0.00062  -0.00485  -0.00952
 125        7PZ         0.00121   0.00029  -0.00363   0.00005   0.00003
 126        8D 0       -0.00005   0.00018   0.00000   0.00032   0.00029
 127        8D+1        0.00002  -0.00001   0.00003   0.00097   0.00097
 128        8D-1       -0.00002  -0.00002  -0.00004   0.00056   0.00056
 129        8D+2       -0.00003   0.00018   0.00001  -0.00032  -0.00036
 130        8D-2       -0.00008   0.00030  -0.00000  -0.00056  -0.00063
 131        9D 0       -0.00065   0.00270  -0.00000  -0.00061   0.00004
 132        9D+1       -0.00016  -0.00041  -0.00111   0.00276   0.00298
 133        9D-1        0.00047  -0.00010   0.00193   0.00160   0.00173
 134        9D+2       -0.00245   0.00205  -0.00002  -0.00180  -0.00187
 135        9D-2        0.00002   0.00456   0.00001  -0.00312  -0.00325
 136       10F 0       -0.00007  -0.00002   0.00023   0.00000   0.00001
 137       10F+1        0.00003   0.00037  -0.00002  -0.00050  -0.00050
 138       10F-1        0.00021  -0.00058  -0.00001   0.00088   0.00087
 139       10F+2       -0.00004   0.00009   0.00012  -0.00106  -0.00108
 140       10F-2       -0.00002  -0.00006   0.00021   0.00061   0.00062
 141       10F+3       -0.00019   0.00077  -0.00000  -0.00005  -0.00020
 142       10F-3        0.00032   0.00007  -0.00006   0.00000   0.00000
 143 5   H  1S          0.00074  -0.00194   0.00067   0.04318   0.04431
 144        2S          0.00182   0.00015  -0.00121   0.03483   0.03866
 145        3S          0.00005  -0.00109  -0.00067   0.00295   0.00254
 146        4PX         0.00015  -0.00025   0.00023   0.00454   0.00456
 147        4PY        -0.00020   0.00049  -0.00008  -0.00213  -0.00224
 148        4PZ         0.00022   0.00008   0.00013   0.00484   0.00497
 149        5PX         0.00029   0.00041  -0.00028   0.00371   0.00457
 150        5PY        -0.00020  -0.00072   0.00056  -0.00127  -0.00041
[...]
 283         V                 6.460820          9.715197
 284         V                 6.480764         10.079319
 285         V                 6.599636          9.572897
 286         V                 6.599783          9.572608
 287         V                 6.657870          9.433769
 288         V                 6.732465          9.772198
 289         V                 6.769274          9.603127
 290         V                 6.793849          9.737955
 291         V                 6.816965          9.893184
 292         V                 6.818048          9.894841
 293         V                 7.339004         10.694479
 294         V                 7.340345         10.695607
 295         V                 7.347640         10.734056
 296         V                 7.371261         10.757440
 297         V                12.112612         33.597217
 298         V                12.114505         33.603187
 299         V                12.469146         35.132937
 300         V                12.831851         36.138947
 Total kinetic energy from orbitals= 1.152532996228D+03
 Calling FoFJK, ICntrl=      2527 FMM=F ISym2X=0 I1Cent= 4 IOpClX= 0 NMat=1 NMatS=1 NMatT=0.
 ***** Axes restored to original set *****
 -------------------------------------------------------------------
 Center     Atomic                   Forces (Hartrees/Bohr)
 Number     Number              X              Y              Z
 -------------------------------------------------------------------
      1       22          -0.000000000   -0.000000000   -0.000000000
      2        8          -0.000000000   -0.000000000   -0.000000000
      3        1          -0.000103676   -0.000067057   -0.000001944
      4        8          -0.000000000   -0.000000000   -0.000000000
      5        1          -0.000011044   -0.000040673   -0.000039289
      6        8          -0.000000000   -0.000000000   -0.000000000
      7        1           0.000015587    0.000009389   -0.000002733
      8        8          -0.000000000   -0.000000000   -0.000000000
      9        1           0.000002209    0.000039563   -0.000034373
     10        1           0.000045655   -0.000098088   -0.000024407
     11        1          -0.000043685   -0.000023533    0.000001686
     12        1          -0.000069511    0.000102851   -0.000009256
     13        1           0.000100256    0.000065196   -0.000007389
 -------------------------------------------------------------------
 Cartesian Forces:  Max     0.000103676 RMS     0.000041224

 GradGradGradGradGradGradGradGradGradGradGradGradGradGradGradGradGradGrad
 Berny optimization.
 FormGI is forming the generalized inverse of G from B-inverse, IUseBI=4.
 Internal  Forces:  Max     0.000139168 RMS     0.000060613
 Search for a local minimum.
 Step number   1 out of a maximum of   69
 All quantities printed in internal units (Hartrees-Bohrs-Radians)
 Mixed Optimization -- En-DIIS/RFO-DIIS
 Second derivative matrix not updated -- first step.
 ITU=  0
     Eigenvalues ---    0.00939   0.00939   0.01293   0.01293   0.01293
     Eigenvalues ---    0.01293   0.02356   0.02356   0.16000   0.16000
     Eigenvalues ---    0.16000   0.16000   0.16000   0.16000   0.16000
     Eigenvalues ---    0.16000   0.51023   0.51027   0.51029   0.51031
     Eigenvalues ---    0.51034   0.51034   0.51035   0.510361000.00000
     Eigenvalues --- 1000.000001000.000001000.000001000.000001000.00000
     Eigenvalues --- 1000.000001000.000001000.000001000.000001000.00000
     Eigenvalues --- 1000.000001000.000001000.000001000.000001000.00000
     Eigenvalues --- 1000.000001000.000001000.000001000.000001000.00000
     Eigenvalues --- 1000.000001000.000001000.000001000.000001000.00000
     Eigenvalues --- 1000.000001000.000001000.000001000.000001000.00000
     Eigenvalues --- 1000.000001000.000001000.000001000.00000
 RFO step:  Lambda=-7.07447137D-07 EMin= 9.38658042D-03
 Linear search not attempted -- first point.
 Iteration  1 RMS(Cart)=  0.00050012 RMS(Int)=  0.00000029
 Iteration  2 RMS(Cart)=  0.00000025 RMS(Int)=  0.00000010
 Variable       Old X    -DE/DX   Delta X   Delta X   Delta X     New X
                                 (Linear)    (Quad)   (Total)
    X1       -0.00008   0.00001   0.00000   0.00000   0.00000  -0.00008
    Y1       -0.00002  -0.00000   0.00000   0.00000   0.00000  -0.00002
    Z1       -0.00009   0.00004   0.00000   0.00000   0.00000  -0.00009
    X2       -3.24301  -0.00014   0.00000   0.00000   0.00000  -3.24301
    Y2       -1.86643  -0.00010   0.00000   0.00000   0.00000  -1.86643
    Z2       -0.00009  -0.00001   0.00000   0.00000   0.00000  -0.00009
    X4        1.86632   0.00004   0.00000   0.00000  -0.00000   1.86632
    Y4       -3.24294  -0.00014   0.00000   0.00000   0.00000  -3.24294
    Z4       -0.00009  -0.00007   0.00000   0.00000   0.00000  -0.00009
    X6        3.24284   0.00010   0.00000   0.00000   0.00000   3.24284
    Y6        1.86638   0.00009   0.00000   0.00000  -0.00000   1.86638
    Z6       -0.00009  -0.00003   0.00000   0.00000   0.00000  -0.00009
    X8       -1.86649  -0.00008   0.00000   0.00000   0.00000  -1.86649
    Y8        3.24290   0.00014   0.00000   0.00000  -0.00000   3.24290
    Z8       -0.00009  -0.00005   0.00000   0.00000   0.00000  -0.00009
    R1        1.85536   0.00007   0.00000   0.00014   0.00014   1.85550
    R2        1.85543   0.00003   0.00000   0.00005   0.00005   1.85548
    R3        1.85535   0.00003   0.00000   0.00006   0.00006   1.85541
    R4        1.85541   0.00005   0.00000   0.00010   0.00010   1.85551
    R5        1.85547   0.00001   0.00000   0.00003   0.00003   1.85549
    R6        1.85539   0.00006   0.00000   0.00012   0.00012   1.85551
    R7        1.85534   0.00003   0.00000   0.00007   0.00007   1.85541
    R8        1.85536   0.00006   0.00000   0.00012   0.00012   1.85549
    A1        2.20558   0.00010   0.00000   0.00063   0.00063   2.20621
    A2        2.20507  -0.00001   0.00000  -0.00008  -0.00008   2.20499
    A3        1.87254  -0.00009   0.00000  -0.00055  -0.00055   1.87198
    A4        2.20652  -0.00004   0.00000  -0.00027  -0.00027   2.20624
    A5        2.20460   0.00011   0.00000   0.00070   0.00070   2.20530
    A6        1.87206  -0.00007   0.00000  -0.00042  -0.00042   1.87164
    A7        2.20600  -0.00005   0.00000  -0.00029  -0.00029   2.20570
    A8        2.20482   0.00012   0.00000   0.00074   0.00074   2.20555
    A9        1.87237  -0.00007   0.00000  -0.00044  -0.00044   1.87193
   A10        2.20656  -0.00005   0.00000  -0.00029  -0.00029   2.20627
   A11        2.20453   0.00012   0.00000   0.00077   0.00077   2.20530
   A12        1.87209  -0.00008   0.00000  -0.00047  -0.00047   1.87162
    D1        2.09036   0.00002   0.00000  -0.00013  -0.00013   2.09023
    D2       -1.05306   0.00003   0.00000  -0.00001  -0.00001  -1.05307
    D3       -1.05123  -0.00003   0.00000  -0.00013  -0.00013  -1.05136
    D4        2.08853  -0.00002   0.00000  -0.00001  -0.00001   2.08853
    D5       -2.10611  -0.00000   0.00000  -0.00015  -0.00015  -2.10626
    D6        1.03767   0.00000   0.00000  -0.00018  -0.00018   1.03749
    D7        1.03365  -0.00001   0.00000  -0.00003  -0.00003   1.03362
    D8       -2.10576  -0.00000   0.00000  -0.00006  -0.00006  -2.10582
    D9        2.09889  -0.00002   0.00000  -0.00127  -0.00127   2.09761
   D10       -1.04736  -0.00001   0.00000   0.00064   0.00064  -1.04672
   D11       -1.04271   0.00001   0.00000  -0.00127  -0.00127  -1.04398
   D12        2.09423   0.00002   0.00000   0.00064   0.00064   2.09487
   D13        1.05746  -0.00004   0.00000  -0.00229  -0.00229   1.05518
   D14       -2.08502  -0.00002   0.00000  -0.00133  -0.00133  -2.08635
   D15       -2.08878   0.00000   0.00000  -0.00037  -0.00037  -2.08916
   D16        1.05192   0.00002   0.00000   0.00058   0.00058   1.05250
   D17        2.08671  -0.00003   0.00000  -0.00002  -0.00002   2.08669
   D18       -1.05269  -0.00003   0.00000  -0.00005  -0.00005  -1.05275
   D19       -1.05488   0.00003   0.00000  -0.00002  -0.00002  -1.05490
   D20        2.08890   0.00003   0.00000  -0.00005  -0.00005   2.08884
   D21       -1.04142   0.00001   0.00000  -0.00101  -0.00101  -1.04244
   D22        2.09928   0.00001   0.00000  -0.00006  -0.00006   2.09922
   D23        2.10017  -0.00003   0.00000  -0.00101  -0.00101   2.09916
   D24       -1.04231  -0.00002   0.00000  -0.00006  -0.00006  -1.04237
         Item               Value     Threshold  Converged?
 Maximum Force            0.000123     0.000450     YES
 RMS     Force            0.000048     0.000300     YES
 Maximum Displacement     0.001453     0.001800     YES
 RMS     Displacement     0.000500     0.001200     YES
 Predicted change in Energy=-3.537239D-07
 Optimization completed.
    -- Stationary point found.
                           ----------------------------
                           !   Optimized Parameters   !
                           ! (Angstroms and Degrees)  !
 --------------------------                            --------------------------
 ! Name  Definition              Value          Derivative Info.                !
 --------------------------------------------------------------------------------
 ! X1    R(1,-1)                 0.0            -DE/DX =    0.0                 !
 ! Y1    R(1,-2)                 0.0            -DE/DX =    0.0                 !
 ! Z1    R(1,-3)                 0.0            -DE/DX =    0.0                 !
 ! X2    R(2,-1)                -1.7161         -DE/DX =   -0.0001              !
 ! Y2    R(2,-2)                -0.9877         -DE/DX =   -0.0001              !
 ! Z2    R(2,-3)                 0.0            -DE/DX =    0.0                 !
 ! X4    R(4,-1)                 0.9876         -DE/DX =    0.0                 !
 ! Y4    R(4,-2)                -1.7161         -DE/DX =   -0.0001              !
 ! Z4    R(4,-3)                 0.0            -DE/DX =   -0.0001              !
 ! X6    R(6,-1)                 1.716          -DE/DX =    0.0001              !
 ! Y6    R(6,-2)                 0.9876         -DE/DX =    0.0001              !
 ! Z6    R(6,-3)                 0.0            -DE/DX =    0.0                 !
 ! X8    R(8,-1)                -0.9877         -DE/DX =   -0.0001              !
 ! Y8    R(8,-2)                 1.7161         -DE/DX =    0.0001              !
 ! Z8    R(8,-3)                 0.0            -DE/DX =   -0.0001              !
 ! R1    R(2,3)                  0.9818         -DE/DX =    0.0001              !
 ! R2    R(2,11)                 0.9819         -DE/DX =    0.0                 !
 ! R3    R(4,5)                  0.9818         -DE/DX =    0.0                 !
 ! R4    R(4,10)                 0.9818         -DE/DX =    0.0001              !
 ! R5    R(6,7)                  0.9819         -DE/DX =    0.0                 !
 ! R6    R(6,13)                 0.9818         -DE/DX =    0.0001              !
 ! R7    R(8,9)                  0.9818         -DE/DX =    0.0                 !
 ! R8    R(8,12)                 0.9818         -DE/DX =    0.0001              !
 ! A1    A(1,2,3)              126.3705         -DE/DX =    0.0001              !
 ! A2    A(1,2,11)             126.3411         -DE/DX =    0.0                 !
 ! A3    A(3,2,11)             107.2884         -DE/DX =   -0.0001              !
 ! A4    A(1,4,5)              126.424          -DE/DX =    0.0                 !
 ! A5    A(1,4,10)             126.3142         -DE/DX =    0.0001              !
 ! A6    A(5,4,10)             107.2614         -DE/DX =   -0.0001              !
 ! A7    A(1,6,7)              126.3943         -DE/DX =    0.0                 !
 ! A8    A(1,6,13)             126.3266         -DE/DX =    0.0001              !
 ! A9    A(7,6,13)             107.279          -DE/DX =   -0.0001              !
 ! A10   A(1,8,9)              126.4266         -DE/DX =    0.0                 !
 ! A11   A(1,8,12)             126.3103         -DE/DX =    0.0001              !
 ! A12   A(9,8,12)             107.2631         -DE/DX =   -0.0001              !
 ! D1    D(4,1,2,3)            119.7691         -DE/DX =    0.0                 !
 ! D2    D(4,1,2,11)           -60.336          -DE/DX =    0.0                 !
 ! D3    D(8,1,2,3)            -60.2309         -DE/DX =    0.0                 !
 ! D4    D(8,1,2,11)           119.664          -DE/DX =    0.0                 !
 ! D5    D(3,2,6,7)           -120.671          -DE/DX =    0.0                 !
 ! D6    D(3,2,6,13)            59.4541         -DE/DX =    0.0                 !
 ! D7    D(11,2,6,7)            59.2239         -DE/DX =    0.0                 !
 ! D8    D(11,2,6,13)         -120.651          -DE/DX =    0.0                 !
 ! D9    D(2,1,4,5)            120.2574         -DE/DX =    0.0                 !
 ! D10   D(2,1,4,10)           -60.0093         -DE/DX =    0.0                 !
 ! D11   D(6,1,4,5)            -59.7426         -DE/DX =    0.0                 !
 ! D12   D(6,1,4,10)           119.9907         -DE/DX =    0.0                 !
 ! D13   D(5,4,8,9)             60.5882         -DE/DX =    0.0                 !
 ! D14   D(5,4,8,12)          -119.4628         -DE/DX =    0.0                 !
 ! D15   D(10,4,8,9)          -119.6785         -DE/DX =    0.0                 !
 ! D16   D(10,4,8,12)           60.2705         -DE/DX =    0.0                 !
 ! D17   D(4,1,6,7)            119.5599         -DE/DX =    0.0                 !
 ! D18   D(4,1,6,13)           -60.3149         -DE/DX =    0.0                 !
 ! D19   D(8,1,6,7)            -60.4401         -DE/DX =    0.0                 !
 ! D20   D(8,1,6,13)           119.6851         -DE/DX =    0.0                 !
 ! D21   D(2,1,8,9)            -59.6692         -DE/DX =    0.0                 !
 ! D22   D(2,1,8,12)           120.2799         -DE/DX =    0.0                 !
 ! D23   D(6,1,8,9)            120.3308         -DE/DX =    0.0                 !
 ! D24   D(6,1,8,12)           -59.7201         -DE/DX =    0.0                 !
 --------------------------------------------------------------------------------
 GradGradGradGradGradGradGradGradGradGradGradGradGradGradGradGradGradGrad

                          Input orientation:                          
 ---------------------------------------------------------------------
 Center     Atomic      Atomic             Coordinates (Angstroms)
 Number     Number       Type             X           Y           Z
 ---------------------------------------------------------------------
      1         22           0       -0.000045   -0.000011   -0.000047
      2          8           0       -1.716125   -0.987670   -0.000047
      3          1           0       -2.416533   -0.937896    0.686182
      4          8           0        0.987614   -1.716092   -0.000047
      5          1           0        1.623415   -2.022777   -0.682433
      6          8           0        1.716035    0.987647   -0.000047
      7          1           0        2.026469    1.616187   -0.687534
      8          8           0       -0.987703    1.716069   -0.000047
      9          1           0       -1.624265    2.022354   -0.681897
     10          1           0        0.934905   -2.417310    0.685173
     11          1           0       -2.025160   -1.617145   -0.687280
     12          1           0       -0.931959    2.418955    0.683185
     13          1           0        2.415539    0.938252    0.687155
 ---------------------------------------------------------------------
                    Distance matrix (angstroms):
                    1          2          3          4          5
     1  Ti   0.000000
     2  O    1.980000   0.000000
     3  H    2.681409   0.981814   0.000000
     4  O    1.980000   2.800143   3.558752   0.000000
     5  H    2.681949   3.562250   4.401278   0.981809   0.000000
     6  O    1.980000   3.960000   4.610504   2.800143   3.088184
     7  H    2.681696   4.610826   5.305723   3.557519   3.661221
     8  O    1.980000   2.800143   3.091276   3.960000   4.611134
     9  H    2.681972   3.087653   3.355951   4.611161   5.187535
    10  H    2.680856   3.088909   3.663441   0.981842   1.581154
    11  H    2.681138   0.981851   1.581440   3.091745   3.671057
    12  H    2.680797   3.561856   3.670479   4.609792   5.303191
    13  H    2.680975   4.609996   5.183516   3.091400   3.357219
                    6          7          8          9         10
     6  O    0.000000
     7  H    0.981870   0.000000
     8  O    2.800143   3.093194   0.000000
     9  H    3.562744   3.673263   0.981805   0.000000
    10  H    3.559976   4.398288   4.609856   5.303664   0.000000
    11  H    4.610181   5.183641   3.557937   3.661516   3.359446
    12  H    3.086636   3.357916   0.981816   1.581148   5.184076
    13  H    0.981831   1.581374   3.557991   4.401091   3.667707
                   11         12         13
    11  H    0.000000
    12  H    4.400383   0.000000
    13  H    5.304614   3.660360   0.000000
 Stoichiometry    H8O4Ti(2+)
 Framework group  C1[X(H8O4Ti)]
 Deg. of freedom    33
 Full point group                 C1      NOp   1
 Largest Abelian subgroup         C1      NOp   1
 Largest concise Abelian subgroup C1      NOp   1
                         Standard orientation:                         
 ---------------------------------------------------------------------
 Center     Atomic      Atomic             Coordinates (Angstroms)
 Number     Number       Type             X           Y           Z
 ---------------------------------------------------------------------
      1         22           0        0.000045    0.000011   -0.000047
      2          8           0        1.716124    0.987672   -0.000047
      3          1           0        2.416532    0.937898    0.686182
      4          8           0       -0.987615    1.716091   -0.000047
      5          1           0       -1.623417    2.022776   -0.682433
      6          8           0       -1.716035   -0.987649   -0.000047
      7          1           0       -2.026467   -1.616189   -0.687534
      8          8           0        0.987705   -1.716068   -0.000047
      9          1           0        1.624267   -2.022353   -0.681897
     10          1           0       -0.934907    2.417310    0.685173
     11          1           0        2.025158    1.617147   -0.687280
     12          1           0        0.931961   -2.418955    0.683185
     13          1           0       -2.415538   -0.938254    0.687155
 ---------------------------------------------------------------------
 Rotational constants (GHZ):      3.2339913      3.2332583      1.6569333
 1\1\GINC-HECTOR-MACBOOKAIR\FOpt\RPBEPBE\CC-pVTZ/def2TZV\H8O4Ti1(2+)\HE
 CTOR\07-Aug-2024\0\\# opt pbepbe/cc-pvtz/def2tzv pop=full geom=connect
 ivity output=wfx\\Ti2_cuadrado_plano_cc-pvtz-def2-tzv_1\\2,1\Ti,-0.000
 04465,-0.00001148,-0.00004726\O,-1.71612474,-0.98767019,-0.00004726\H,
 -2.4165327,-0.93789567,0.68618192\O,0.98761406,-1.71609157,-0.00004726
 \H,1.62341519,-2.02277711,-0.68243261\O,1.71603544,0.98764723,-0.00004
 726\H,2.02646867,1.6161872,-0.6875339\O,-0.98770336,1.71606861,-0.0000
 4726\H,-1.62426536,2.02235408,-0.68189687\H,0.93490487,-2.41731036,0.6
 851732\H,-2.02515951,-1.61714515,-0.68728032\H,-0.9319585,2.41895536,0
 .68318503\H,2.41553851,0.93825158,0.68715539\\Version=EM64L-G09RevE.01
 \State=1-A\HF=-1155.0852891\RMSD=1.417e-09\RMSF=4.122e-05\Dipole=0.001
 6022,0.0004618,-0.0000399\Quadrupole=7.7665494,7.704609,-15.4711584,0.
 0056309,0.0051969,-0.0015465\PG=C01 [X(H8O4Ti1)]\\@

 Writing a WFNX file to "Ti2_cuadrado_plano_cc-pvtz-def2-tzv_1.wfx"


 E PUR SI MUOVE    -- GALILEO GALILEI
 Job cpu time:       0 days  0 hours  2 minutes 31.5 seconds.
 File lengths (MBytes):  RWF=     49 Int=      0 D2E=      0 Chk=      7 Scr=      1
 Normal termination of Gaussian 09 at Wed Aug  7 19:02:04 2024.
