 Entering Gaussian System, Link 0=g09
 Input=/home/scratch/M_H2O_4_tetraedrico/Opt/Fe2_tetraedrico_cc-pvtz-def2-tzv_1.gjf
 Output=/home/scratch/M_H2O_4_tetraedrico/Opt/Fe2_tetraedrico_cc-pvtz-def2-tzv_1.log
 Initial command:
 /opt/g09/l1.exe "/home/scratch/Gau-85988.inp" -scrdir="/home/scratch/"
 Entering Link 1 = /opt/g09/l1.exe PID=     85991.
  
 Copyright (c) 1988,1990,1992,1993,1995,1998,2003,2009,2015,
            Gaussian, Inc.  All Rights Reserved.
  
 This is part of the Gaussian(R) 09 program.  It is based on
 the Gaussian(R) 03 system (copyright 2003, Gaussian, Inc.),
 the Gaussian(R) 98 system (copyright 1998, Gaussian, Inc.),
 the Gaussian(R) 94 system (copyright 1995, Gaussian, Inc.),
 the Gaussian 92(TM) system (copyright 1992, Gaussian, Inc.),
 the Gaussian 90(TM) system (copyright 1990, Gaussian, Inc.),
 the Gaussian 88(TM) system (copyright 1988, Gaussian, Inc.),
 the Gaussian 86(TM) system (copyright 1986, Carnegie Mellon
 University), and the Gaussian 82(TM) system (copyright 1983,
 Carnegie Mellon University). Gaussian is a federally registered
 trademark of Gaussian, Inc.
  
 This software contains proprietary and confidential information,
 including trade secrets, belonging to Gaussian, Inc.
  
 This software is provided under written license and may be
 used, copied, transmitted, or stored only in accord with that
 written license.
  
 The following legend is applicable only to US Government
 contracts under FAR:
  
                    RESTRICTED RIGHTS LEGEND
  
 Use, reproduction and disclosure by the US Government is
 subject to restrictions as set forth in subparagraphs (a)
 and (c) of the Commercial Computer Software - Restricted
 Rights clause in FAR 52.227-19.
  
 Gaussian, Inc.
 340 Quinnipiac St., Bldg. 40, Wallingford CT 06492
  
  
 ---------------------------------------------------------------
 Warning -- This program may not be used in any manner that
 competes with the business of Gaussian, Inc. or will provide
 assistance to any competitor of Gaussian, Inc.  The licensee
 of this program is prohibited from giving any competitor of
 Gaussian, Inc. access to this program.  By using this program,
 the user acknowledges that Gaussian, Inc. is engaged in the
 business of creating and licensing software in the field of
 computational chemistry and represents and warrants to the
 licensee that it is not a competitor of Gaussian, Inc. and that
 it will not use this program in any manner prohibited above.
 ---------------------------------------------------------------
  

 Cite this work as:
 Gaussian 09, Revision E.01,
 M. J. Frisch, G. W. Trucks, H. B. Schlegel, G. E. Scuseria, 
 M. A. Robb, J. R. Cheeseman, G. Scalmani, V. Barone, B. Mennucci, 
 G. A. Petersson, H. Nakatsuji, M. Caricato, X. Li, H. P. Hratchian, 
 A. F. Izmaylov, J. Bloino, G. Zheng, J. L. Sonnenberg, M. Hada, 
 M. Ehara, K. Toyota, R. Fukuda, J. Hasegawa, M. Ishida, T. Nakajima, 
 Y. Honda, O. Kitao, H. Nakai, T. Vreven, J. A. Montgomery, Jr., 
 J. E. Peralta, F. Ogliaro, M. Bearpark, J. J. Heyd, E. Brothers, 
 K. N. Kudin, V. N. Staroverov, T. Keith, R. Kobayashi, J. Normand, 
 K. Raghavachari, A. Rendell, J. C. Burant, S. S. Iyengar, J. Tomasi, 
 M. Cossi, N. Rega, J. M. Millam, M. Klene, J. E. Knox, J. B. Cross, 
 V. Bakken, C. Adamo, J. Jaramillo, R. Gomperts, R. E. Stratmann, 
 O. Yazyev, A. J. Austin, R. Cammi, C. Pomelli, J. W. Ochterski, 
 R. L. Martin, K. Morokuma, V. G. Zakrzewski, G. A. Voth, 
 P. Salvador, J. J. Dannenberg, S. Dapprich, A. D. Daniels, 
 O. Farkas, J. B. Foresman, J. V. Ortiz, J. Cioslowski, 
 and D. J. Fox, Gaussian, Inc., Wallingford CT, 2013.
 
 ******************************************
 Gaussian 09:  EM64L-G09RevE.01 30-Nov-2015
                 8-Aug-2024 
 ******************************************
 %chk=Fe2_tetraedrico_cc-pvtz-def2-tzv_1.chk
 ------------------------------------------------------------------
 # opt pbepbe/cc-pvtz/def2tzv pop=full geom=connectivity output=wfx
 ------------------------------------------------------------------
 1/14=-1,18=20,19=15,26=3,38=1,57=2/1,3;
 2/9=110,12=2,17=6,18=5,40=1/2;
 3/5=16,6=1,11=2,16=1,25=1,30=1,71=1,74=1009,82=44/1,2,3;
 4//1;
 5/5=2,38=5/2;
 6/7=3,28=1/1;
 7//1,2,3,16;
 1/14=-1,18=20,19=15,26=3/3(2);
 2/9=110/2;
 99/6=200/99;
 2/9=110/2;
 3/5=16,6=1,11=2,16=1,25=1,30=1,71=1,74=1009,82=44/1,2,3;
 4/5=5,16=3,69=1/1;
 5/5=2,38=5/2;
 7//1,2,3,16;
 1/14=-1,18=20,19=15,26=3/3(-5);
 2/9=110/2;
 6/7=3,19=2,28=1/1;
 99/6=200,9=1/99;
 ----------------------------------
 Fe2_tetraedrico_cc-pvtz-def2-tzv_1
 ----------------------------------
 Symbolic Z-matrix:
 Charge =  2 Multiplicity = 1
 Fe                   -1   -0.00001   0.0108    0.00003 
 O                    -1    1.48405   1.0618    0.07319 
 H                    0     1.65322   1.67657  -0.6784 
 O                    -1   -0.07244  -1.04077   1.48373 
 H                    0    -0.88378  -1.54607   1.70551 
 O                    -1   -1.48444   1.06135  -0.07203 
 H                    0    -2.33062   1.07503  -0.58029 
 O                    -1    0.07279  -1.03919  -1.48477 
 H                    0     0.88484  -1.5425   -1.70848 
 H                    0    -1.65479   1.6749    0.68028 
 H                    0    -0.67004  -1.51921  -1.91066 
 H                    0     0.67076  -1.51983   1.91006 
 H                    0     2.33102   1.07479   0.58018 
 

 GradGradGradGradGradGradGradGradGradGradGradGradGradGradGradGradGradGrad
 Berny optimization.
 Initialization pass.
                           ----------------------------
                           !    Initial Parameters    !
                           ! (Angstroms and Degrees)  !
 --------------------------                            --------------------------
 ! Name  Definition              Value          Derivative Info.                !
 --------------------------------------------------------------------------------
 ! X1    R(1,-1)                 0.0            Frozen                          !
 ! Y1    R(1,-2)                 0.0108         Frozen                          !
 ! Z1    R(1,-3)                 0.0            Frozen                          !
 ! X2    R(2,-1)                 1.4841         Frozen                          !
 ! Y2    R(2,-2)                 1.0618         Frozen                          !
 ! Z2    R(2,-3)                 0.0732         Frozen                          !
 ! X4    R(4,-1)                -0.0724         Frozen                          !
 ! Y4    R(4,-2)                -1.0408         Frozen                          !
 ! Z4    R(4,-3)                 1.4837         Frozen                          !
 ! X6    R(6,-1)                -1.4844         Frozen                          !
 ! Y6    R(6,-2)                 1.0614         Frozen                          !
 ! Z6    R(6,-3)                -0.072          Frozen                          !
 ! X8    R(8,-1)                 0.0728         Frozen                          !
 ! Y8    R(8,-2)                -1.0392         Frozen                          !
 ! Z8    R(8,-3)                -1.4848         Frozen                          !
 ! R1    R(2,3)                  0.9856         estimate D2E/DX2                !
 ! R2    R(2,13)                 0.9872         estimate D2E/DX2                !
 ! R3    R(4,5)                  0.9812         estimate D2E/DX2                !
 ! R4    R(4,12)                 0.9816         estimate D2E/DX2                !
 ! R5    R(6,7)                  0.9872         estimate D2E/DX2                !
 ! R6    R(6,10)                 0.9856         estimate D2E/DX2                !
 ! R7    R(8,9)                  0.9812         estimate D2E/DX2                !
 ! R8    R(8,11)                 0.9816         estimate D2E/DX2                !
 ! A1    A(1,2,3)              118.0013         estimate D2E/DX2                !
 ! A2    A(1,2,13)             136.7047         estimate D2E/DX2                !
 ! A3    A(3,2,13)             103.6604         estimate D2E/DX2                !
 ! A4    A(1,4,5)              120.9777         estimate D2E/DX2                !
 ! A5    A(1,4,12)             127.2938         estimate D2E/DX2                !
 ! A6    A(5,4,12)             106.0539         estimate D2E/DX2                !
 ! A7    A(1,6,7)              136.6776         estimate D2E/DX2                !
 ! A8    A(1,6,10)             118.0387         estimate D2E/DX2                !
 ! A9    A(7,6,10)             103.6637         estimate D2E/DX2                !
 ! A10   A(1,8,9)              120.9995         estimate D2E/DX2                !
 ! A11   A(1,8,11)             127.2864         estimate D2E/DX2                !
 ! A12   A(9,8,11)             106.0524         estimate D2E/DX2                !
 ! D1    D(4,1,2,3)            179.2497         estimate D2E/DX2                !
 ! D2    D(4,1,2,13)            16.6175         estimate D2E/DX2                !
 ! D3    D(6,1,2,3)            -60.7502         estimate D2E/DX2                !
 ! D4    D(6,1,2,13)           136.6175         estimate D2E/DX2                !
 ! D5    D(8,1,2,3)             59.2498         estimate D2E/DX2                !
 ! D6    D(8,1,2,13)          -103.3825         estimate D2E/DX2                !
 ! D7    D(2,1,4,5)            168.1052         estimate D2E/DX2                !
 ! D8    D(2,1,4,12)           -42.2772         estimate D2E/DX2                !
 ! D9    D(6,1,4,5)             48.1052         estimate D2E/DX2                !
 ! D10   D(6,1,4,12)          -162.2771         estimate D2E/DX2                !
 ! D11   D(8,1,4,5)            -71.8948         estimate D2E/DX2                !
 ! D12   D(8,1,4,12)            77.7228         estimate D2E/DX2                !
 ! D13   D(2,1,6,7)            136.4903         estimate D2E/DX2                !
 ! D14   D(2,1,6,10)           -60.8035         estimate D2E/DX2                !
 ! D15   D(4,1,6,7)           -103.5098         estimate D2E/DX2                !
 ! D16   D(4,1,6,10)            59.1964         estimate D2E/DX2                !
 ! D17   D(8,1,6,7)             16.4903         estimate D2E/DX2                !
 ! D18   D(8,1,6,10)           179.1965         estimate D2E/DX2                !
 ! D19   D(2,1,8,9)             47.9638         estimate D2E/DX2                !
 ! D20   D(2,1,8,11)          -162.3857         estimate D2E/DX2                !
 ! D21   D(4,1,8,9)            -72.0361         estimate D2E/DX2                !
 ! D22   D(4,1,8,11)            77.6143         estimate D2E/DX2                !
 ! D23   D(6,1,8,9)            167.9638         estimate D2E/DX2                !
 ! D24   D(6,1,8,11)           -42.3858         estimate D2E/DX2                !
 --------------------------------------------------------------------------------
 Trust Radius=3.00D-01 FncErr=1.00D-07 GrdErr=1.00D-06
 Number of steps in this run=     69 maximum allowed number of steps=    100.
 GradGradGradGradGradGradGradGradGradGradGradGradGradGradGradGradGradGrad

                          Input orientation:                          
 ---------------------------------------------------------------------
 Center     Atomic      Atomic             Coordinates (Angstroms)
 Number     Number       Type             X           Y           Z
 ---------------------------------------------------------------------
      1         26           0       -0.000011    0.010799    0.000031
      2          8           0        1.484052    1.061801    0.073193
      3          1           0        1.653215    1.676573   -0.678396
      4          8           0       -0.072436   -1.040767    1.483731
      5          1           0       -0.883779   -1.546071    1.705505
      6          8           0       -1.484445    1.061352   -0.072033
      7          1           0       -2.330618    1.075027   -0.580290
      8          8           0        0.072788   -1.039191   -1.484766
      9          1           0        0.884840   -1.542500   -1.708479
     10          1           0       -1.654785    1.674903    0.680275
     11          1           0       -0.670041   -1.519211   -1.910656
     12          1           0        0.670757   -1.519833    1.910056
     13          1           0        2.331015    1.074788    0.580183
 ---------------------------------------------------------------------
                    Distance matrix (angstroms):
                    1          2          3          4          5
     1  Fe   0.000000
     2  O    1.820000   0.000000
     3  H    2.442994   0.985619   0.000000
     4  O    1.820000   2.972047   3.877705   0.000000
     5  H    2.472556   3.882276   4.743918   0.981220   0.000000
     6  O    1.820000   2.972047   3.254395   2.972048   3.212334
     7  H    2.626992   3.870262   4.030188   3.719698   3.766743
     8  O    1.820000   2.972048   3.243972   2.972048   3.368943
     9  H    2.472793   3.211821   3.466108   3.370210   3.844907
    10  H    2.443411   3.255264   3.576151   3.244108   3.467019
    11  H    2.537832   3.903510   4.138721   3.479641   3.622572
    12  H    2.537904   3.271139   4.228749   0.981628   1.568156
    13  H    2.627228   0.987195   1.550993   3.326943   4.297691
                    6          7          8          9         10
     6  O    0.000000
     7  H    0.987179   0.000000
     8  O    2.972048   3.326312   0.000000
     9  H    3.882204   4.296909   0.981222   0.000000
    10  H    0.985611   1.551008   3.877914   4.744210   0.000000
    11  H    3.271558   3.355214   0.981629   1.568143   4.229067
    12  H    3.903343   4.684376   3.480432   3.624933   4.138460
    13  H    3.870827   4.803907   3.719209   3.765580   4.031967
                   11         12         13
    11  H    0.000000
    12  H    4.049145   0.000000
    13  H    4.683956   3.355157   0.000000
 Stoichiometry    FeH8O4(2+)
 Framework group  C1[X(FeH8O4)]
 Deg. of freedom    33
 Full point group                 C1      NOp   1
 Largest Abelian subgroup         C1      NOp   1
 Largest concise Abelian subgroup C1      NOp   1
                         Standard orientation:                         
 ---------------------------------------------------------------------
 Center     Atomic      Atomic             Coordinates (Angstroms)
 Number     Number       Type             X           Y           Z
 ---------------------------------------------------------------------
      1         26           0        0.000011    0.010799   -0.000031
      2          8           0       -1.484052    1.061801   -0.073193
      3          1           0       -1.653215    1.676573    0.678396
      4          8           0        0.072436   -1.040767   -1.483731
      5          1           0        0.883779   -1.546071   -1.705505
      6          8           0        1.484445    1.061352    0.072033
      7          1           0        2.330618    1.075027    0.580290
      8          8           0       -0.072788   -1.039191    1.484766
      9          1           0       -0.884840   -1.542500    1.708479
     10          1           0        1.654785    1.674903   -0.680275
     11          1           0        0.670040   -1.519211    1.910656
     12          1           0       -0.670757   -1.519833   -1.910056
     13          1           0       -2.331015    1.074788   -0.580183
 ---------------------------------------------------------------------
 Rotational constants (GHZ):      2.9114558      2.8867401      2.8441353
 Standard basis: CC-pVTZ (5D, 7F)
 There are   344 symmetry adapted cartesian basis functions of A   symmetry.
 There are   300 symmetry adapted basis functions of A   symmetry.
   300 basis functions,   695 primitive gaussians,   344 cartesian basis functions
    32 alpha electrons       32 beta electrons
       nuclear repulsion energy       421.8758113336 Hartrees.
 NAtoms=   13 NActive=   13 NUniq=   13 SFac= 1.00D+00 NAtFMM=   60 NAOKFM=F Big=F
 Integral buffers will be    131072 words long.
 Raffenetti 2 integral format.
 Two-electron integral symmetry is turned on.
 Standard density basis: def2TZV (5D, 7F)
   110 Density fitting functions
 There are   110 symmetry adapted density basis functions of A   symmetry.
 One-electron integrals computed using PRISM.
 NBasis=   300 RedAO= T EigKep=  1.20D-03  NBF=   300
 NBsUse=   300 1.00D-06 EigRej= -1.00D+00 NBFU=   300
 NBasis=      300 NBas6D=      344 NTT=       45150   NTT6D=    59340
 NDBShl=       68 NDBF=        110 NDBF6D=      113  NNucDB=        0
 IDenFi=        2 ISolve=        0 FullAP=F BlkAPC=T NucTyp=        0
 TolInv= 1.00D-06 TolIt=  1.00D-10 IR12=0.
 FoFCou: FMM=F IPFlag=           0 FMFlag=           0 FMFlg1=           0
         NFxFlg=           0 DoJE=F BraDBF=T KetDBF=T FulRan=T
         wScrn=  0.000000 ICntrl=     600 IOpCl=  3 I1Cent=           6 NGrid=           0
         NMat0=    1 NMatS0=    113 NMatT0=    0 NMatD0=    1 NMtDS0=    0 NMtDT0=    0
 Petite list used in FoFCou.
 DBF EigKep=  4.25D-04 EigRej= -1.00D+00
 NDBF=    110  NBFD=   110
 NRank=   110 NBFDU=   110
 S*AI*S=  8.46676146550    
 ExpMin= 3.14D-02 ExpMax= 4.32D+06 ExpMxC= 4.91D+03 IAcc=3 IRadAn=         5 AccDes= 0.00D+00
 Harris functional with IExCor= 1009 and IRadAn=       5 diagonalized for initial guess.
 HarFok:  IExCor= 1009 AccDes= 0.00D+00 IRadAn=         5 IDoV= 1 UseB2=F ITyADJ=14
 ICtDFT=  3500011 ScaDFX=  1.000000  1.000000  1.000000  1.000000
 FoFCou: FMM=F IPFlag=           0 FMFlag=      100000 FMFlg1=           0
         NFxFlg=           0 DoJE=T BraDBF=F KetDBF=T FulRan=T
         wScrn=  0.000000 ICntrl=     500 IOpCl=  0 I1Cent=   200000004 NGrid=           0
         NMat0=    1 NMatS0=      1 NMatT0=    0 NMatD0=    1 NMtDS0=    0 NMtDT0=    0
 Petite list used in FoFCou.
 Requested convergence on RMS density matrix=1.00D-08 within 128 cycles.
 Requested convergence on MAX density matrix=1.00D-06.
 Requested convergence on             energy=1.00D-06.
 No special actions if energy rises.
 FoFCou: FMM=F IPFlag=           0 FMFlag=      100000 FMFlg1=           0
         NFxFlg=           0 DoJE=T BraDBF=T KetDBF=F FulRan=T
         wScrn=  0.000000 ICntrl=     500 IOpCl=  0 I1Cent=           5 NGrid=           0
         NMat0=    1 NMatS0=      1 NMatT0=    0 NMatD0=    1 NMtDS0=    0 NMtDT0=    0
 Symmetry not used in FoFCou.
 EnCoef did   100 forward-backward iterations
 SCF Done:  E(RPBE-PBE) =  -1569.32713848     A.U. after   19 cycles
            NFock= 19  Conv=0.94D-08     -V/T= 2.0019

 **********************************************************************

            Population analysis using the SCF density.

 **********************************************************************

 Orbital symmetries:
       Occupied  (A) (A) (A) (A) (A) (A) (A) (A) (A) (A) (A) (A)
                 (A) (A) (A) (A) (A) (A) (A) (A) (A) (A) (A) (A)
                 (A) (A) (A) (A) (A) (A) (A) (A)
       Virtual   (A) (A) (A) (A) (A) (A) (A) (A) (A) (A) (A) (A)
                 (A) (A) (A) (A) (A) (A) (A) (A) (A) (A) (A) (A)
                 (A) (A) (A) (A) (A) (A) (A) (A) (A) (A) (A) (A)
                 (A) (A) (A) (A) (A) (A) (A) (A) (A) (A) (A) (A)
                 (A) (A) (A) (A) (A) (A) (A) (A) (A) (A) (A) (A)
                 (A) (A) (A) (A) (A) (A) (A) (A) (A) (A) (A) (A)
                 (A) (A) (A) (A) (A) (A) (A) (A) (A) (A) (A) (A)
                 (A) (A) (A) (A) (A) (A) (A) (A) (A) (A) (A) (A)
                 (A) (A) (A) (A) (A) (A) (A) (A) (A) (A) (A) (A)
                 (A) (A) (A) (A) (A) (A) (A) (A) (A) (A) (A) (A)
                 (A) (A) (A) (A) (A) (A) (A) (A) (A) (A) (A) (A)
                 (A) (A) (A) (A) (A) (A) (A) (A) (A) (A) (A) (A)
                 (A) (A) (A) (A) (A) (A) (A) (A) (A) (A) (A) (A)
                 (A) (A) (A) (A) (A) (A) (A) (A) (A) (A) (A) (A)
                 (A) (A) (A) (A) (A) (A) (A) (A) (A) (A) (A) (A)
                 (A) (A) (A) (A) (A) (A) (A) (A) (A) (A) (A) (A)
                 (A) (A) (A) (A) (A) (A) (A) (A) (A) (A) (A) (A)
                 (A) (A) (A) (A) (A) (A) (A) (A) (A) (A) (A) (A)
                 (A) (A) (A) (A) (A) (A) (A) (A) (A) (A) (A) (A)
                 (A) (A) (A) (A) (A) (A) (A) (A) (A) (A) (A) (A)
                 (A) (A) (A) (A) (A) (A) (A) (A) (A) (A) (A) (A)
                 (A) (A) (A) (A) (A) (A) (A) (A) (A) (A) (A) (A)
                 (A) (A) (A) (A)
 The electronic state is 1-A.
 Alpha  occ. eigenvalues -- -254.99487 -30.11274 -26.06881 -26.06072 -26.05415
 Alpha  occ. eigenvalues --  -19.17272 -19.17272 -19.16619 -19.16619  -3.68484
 Alpha  occ. eigenvalues --   -2.48817  -2.47615  -2.46712  -1.34059  -1.33669
 Alpha  occ. eigenvalues --   -1.33172  -1.32974  -0.88433  -0.88085  -0.87538
 Alpha  occ. eigenvalues --   -0.87324  -0.82978  -0.81650  -0.80637  -0.79868
 Alpha  occ. eigenvalues --   -0.70879  -0.70005  -0.69280  -0.67530  -0.57291
 Alpha  occ. eigenvalues --   -0.53264  -0.51819
 Alpha virt. eigenvalues --   -0.46322  -0.45827  -0.37648  -0.32646  -0.32217
 Alpha virt. eigenvalues --   -0.31733  -0.26569  -0.25280  -0.24960  -0.23660
 Alpha virt. eigenvalues --   -0.19678  -0.18671  -0.18322  -0.17716  -0.15105
 Alpha virt. eigenvalues --   -0.13259  -0.12058  -0.10713  -0.10518  -0.09571
 Alpha virt. eigenvalues --   -0.08106  -0.06730  -0.05212   0.02723   0.04673
 Alpha virt. eigenvalues --    0.05413   0.08567   0.08692   0.11685   0.12942
 Alpha virt. eigenvalues --    0.14086   0.14274   0.20463   0.21945   0.22720
 Alpha virt. eigenvalues --    0.23991   0.25582   0.25791   0.25863   0.27988
 Alpha virt. eigenvalues --    0.28471   0.29273   0.30020   0.32097   0.32970
 Alpha virt. eigenvalues --    0.37050   0.37400   0.37844   0.38193   0.44849
 Alpha virt. eigenvalues --    0.45307   0.51471   0.56809   0.57855   0.58610
 Alpha virt. eigenvalues --    0.61184   0.65119   0.68520   0.69564   0.71412
 Alpha virt. eigenvalues --    0.73077   0.74692   0.77783   0.81676   0.85578
 Alpha virt. eigenvalues --    0.86701   0.90654   0.91126   0.92212   0.92575
 Alpha virt. eigenvalues --    0.94464   0.95618   0.97442   0.97890   1.00213
 Alpha virt. eigenvalues --    1.01952   1.03914   1.10501   1.12682   1.15289
 Alpha virt. eigenvalues --    1.21312   1.27061   1.27819   1.32345   1.34225
 Alpha virt. eigenvalues --    1.38521   1.41736   1.42079   1.49139   1.49794
 Alpha virt. eigenvalues --    1.52093   1.54199   1.59295   1.60196   1.64933
 Alpha virt. eigenvalues --    1.67837   1.67914   1.72634   1.74550   1.80773
 Alpha virt. eigenvalues --    1.85997   1.87983   1.96494   1.98099   1.99459
 Alpha virt. eigenvalues --    2.02612   2.04853   2.24044   2.27721   2.29723
 Alpha virt. eigenvalues --    2.34402   2.34689   2.39376   2.39647   2.43120
 Alpha virt. eigenvalues --    2.60230   2.60480   2.61851   2.62035   2.76330
 Alpha virt. eigenvalues --    2.76985   2.79708   2.80592   2.81437   2.82494
 Alpha virt. eigenvalues --    2.82920   2.84018   2.86473   2.87433   2.87885
 Alpha virt. eigenvalues --    2.88769   2.91057   2.92593   2.92928   2.95811
 Alpha virt. eigenvalues --    2.99466   3.01181   3.04402   3.05418   3.09185
 Alpha virt. eigenvalues --    3.10177   3.10880   3.11058   3.18712   3.20143
 Alpha virt. eigenvalues --    3.21933   3.25879   3.29426   3.32979   3.33391
 Alpha virt. eigenvalues --    3.34462   3.35248   3.36766   3.37710   3.40467
 Alpha virt. eigenvalues --    3.42073   3.43559   3.43994   3.52657   3.53665
 Alpha virt. eigenvalues --    3.54724   3.57032   3.58315   3.59241   3.59682
 Alpha virt. eigenvalues --    3.62500   3.66929   3.74601   3.75104   3.80685
 Alpha virt. eigenvalues --    3.81995   3.82113   3.83011   3.84459   3.87491
 Alpha virt. eigenvalues --    3.88574   3.88772   3.89455   3.89913   4.11649
 Alpha virt. eigenvalues --    4.13655   4.13783   4.17925   4.25207   4.25559
 Alpha virt. eigenvalues --    4.29099   4.31140   4.39527   4.45555   4.47347
 Alpha virt. eigenvalues --    4.50842   4.51033   4.59456   4.62392   4.62989
 Alpha virt. eigenvalues --    4.66456   4.66966   4.75268   4.77681   4.80651
 Alpha virt. eigenvalues --    5.09162   5.09177   5.12864   5.13721   5.55438
 Alpha virt. eigenvalues --    5.55798   5.59566   5.60293   5.81778   5.83493
 Alpha virt. eigenvalues --    5.84028   5.85783   5.87236   5.89463   5.90619
 Alpha virt. eigenvalues --    5.92653   5.99325   6.00917   6.01971   6.03617
 Alpha virt. eigenvalues --    6.05367   6.06112   6.08786   6.10400   6.18697
 Alpha virt. eigenvalues --    6.19081   6.19570   6.20105   6.20729   6.22758
 Alpha virt. eigenvalues --    6.25054   6.30406   6.42221   6.44884   6.45748
 Alpha virt. eigenvalues --    6.46860   6.48901   6.49966   6.55995   6.57700
 Alpha virt. eigenvalues --    6.75075   6.76694   6.80171   6.89036   7.26129
 Alpha virt. eigenvalues --    7.27032   7.31679   7.32863   7.83042   7.83173
 Alpha virt. eigenvalues --    7.85233   7.85849   7.86266   7.87748   7.99885
 Alpha virt. eigenvalues --    8.00994   8.01195   8.37110   8.40288   8.41812
 Alpha virt. eigenvalues --    8.57990   8.62273   8.63342   8.91221  11.97564
 Alpha virt. eigenvalues --   12.10988  12.20948  12.72671
     Molecular Orbital Coefficients:
                           1         2         3         4         5
                           O         O         O         O         O
     Eigenvalues --  -254.99487 -30.11274 -26.06881 -26.06072 -26.05415
   1 1   Fe 1S          1.00061  -0.30414   0.00000  -0.00000  -0.00077
   2        2S         -0.00205   1.04697  -0.00000   0.00000   0.00266
   3        3S         -0.00020  -0.00218   0.00000  -0.00000  -0.00010
   4        4S         -0.00176  -0.00509  -0.00000   0.00000  -0.00124
   5        5S         -0.00166  -0.00444  -0.00000   0.00000  -0.00094
   6        6S          0.00016  -0.00019  -0.00000   0.00000  -0.00011
   7        7S         -0.00022  -0.00053  -0.00000   0.00000  -0.00011
   8        8PX        -0.00000  -0.00000   0.44080   0.89848   0.00117
   9        8PY         0.00000  -0.00241   0.00022  -0.00141   1.00081
  10        8PZ         0.00000   0.00000   0.89843  -0.44081  -0.00082
  11        9PX        -0.00000   0.00000   0.00202   0.00430   0.00001
  12        9PY         0.00000   0.00023   0.00000  -0.00001   0.00475
  13        9PZ         0.00000  -0.00000   0.00389  -0.00198  -0.00000
  14       10PX        -0.00000   0.00000   0.00216   0.00525   0.00001
  15       10PY        -0.00000   0.00025   0.00000  -0.00001   0.00564
  16       10PZ         0.00000  -0.00000   0.00451  -0.00226  -0.00000
  17       11PX        -0.00000  -0.00000  -0.00009   0.00090   0.00000
  18       11PY        -0.00002  -0.00011   0.00000  -0.00000   0.00075
  19       11PZ        -0.00000  -0.00000   0.00086  -0.00024  -0.00000
  20       12PX         0.00000   0.00000   0.00135   0.00285   0.00000
  21       12PY         0.00000   0.00024   0.00000  -0.00000   0.00323
  22       12PZ         0.00000  -0.00000   0.00265  -0.00136  -0.00000
  23       13PX         0.00000   0.00000  -0.00000  -0.00022  -0.00000
  24       13PY         0.00001   0.00003  -0.00000   0.00000  -0.00035
  25       13PZ         0.00000  -0.00000  -0.00013   0.00015   0.00000
  26       14D 0       -0.00001  -0.00021   0.00000   0.00000  -0.00050
  27       14D+1       -0.00000  -0.00012   0.00000  -0.00000  -0.00000
  28       14D-1       -0.00000  -0.00000  -0.00009   0.00007  -0.00000
  29       14D+2       -0.00000  -0.00013   0.00000   0.00000  -0.00006
  30       14D-2        0.00000   0.00000   0.00028   0.00055   0.00000
  31       15D 0        0.00001   0.00020  -0.00000  -0.00000   0.00106
  32       15D+1        0.00001   0.00011   0.00000   0.00000  -0.00001
  33       15D-1        0.00000   0.00000   0.00061  -0.00039   0.00000
  34       15D+2        0.00000   0.00007  -0.00000  -0.00000  -0.00033
  35       15D-2       -0.00000  -0.00000  -0.00056  -0.00108  -0.00000
  36       16D 0        0.00000   0.00027   0.00000  -0.00000   0.00031
  37       16D+1        0.00000   0.00016  -0.00000   0.00000   0.00001
  38       16D-1        0.00000   0.00000  -0.00018   0.00009   0.00000
  39       16D+2        0.00000   0.00020  -0.00000  -0.00000   0.00029
  40       16D-2       -0.00000  -0.00000  -0.00018  -0.00039  -0.00000
  41       17D 0        0.00000   0.00002   0.00000   0.00000   0.00019
  42       17D+1        0.00002   0.00006  -0.00000   0.00000   0.00007
  43       17D-1        0.00000   0.00000  -0.00016  -0.00015   0.00000
  44       17D+2        0.00003   0.00007  -0.00000  -0.00000  -0.00004
  45       17D-2       -0.00000  -0.00000  -0.00004   0.00002   0.00000
  46       18F 0        0.00000   0.00000   0.00009  -0.00009   0.00000
  47       18F+1       -0.00000  -0.00000   0.00010   0.00020   0.00000
  48       18F-1       -0.00001  -0.00001   0.00000  -0.00000  -0.00022
  49       18F+2        0.00000  -0.00000   0.00034  -0.00007   0.00000
  50       18F-2        0.00000   0.00001  -0.00000   0.00000  -0.00002
  51       18F+3        0.00000   0.00000  -0.00005  -0.00019   0.00000
  52       18F-3        0.00000   0.00002   0.00000   0.00000   0.00016
  53       19F 0       -0.00000  -0.00000  -0.00002   0.00003  -0.00000
  54       19F+1        0.00000   0.00000   0.00003   0.00003   0.00000
  55       19F-1        0.00002   0.00007  -0.00000   0.00000   0.00001
  56       19F+2       -0.00000  -0.00000  -0.00002  -0.00003   0.00000
  57       19F-2       -0.00000  -0.00001   0.00000   0.00000   0.00003
  58       19F+3       -0.00000  -0.00000   0.00003   0.00011  -0.00000
  59       19F-3       -0.00002  -0.00006  -0.00000  -0.00000  -0.00015
  60       20G 0        0.00000   0.00002  -0.00000   0.00000  -0.00001
  61       20G+1       -0.00000  -0.00001  -0.00000  -0.00000  -0.00000
  62       20G-1        0.00000   0.00000   0.00001  -0.00001  -0.00000
  63       20G+2        0.00000   0.00012  -0.00000   0.00000  -0.00001
  64       20G-2       -0.00000  -0.00000   0.00001   0.00001   0.00000
  65       20G+3       -0.00000   0.00002  -0.00000  -0.00000  -0.00000
  66       20G-3        0.00000   0.00000  -0.00000   0.00000   0.00000
  67       20G+4        0.00000  -0.00005  -0.00000  -0.00000   0.00001
  68       20G-4       -0.00000   0.00000  -0.00000  -0.00001  -0.00000
  69 2   O  1S          0.00000  -0.00001   0.00000   0.00002  -0.00003
  70        2S          0.00000  -0.00007   0.00001   0.00012  -0.00017
  71        3S         -0.00001  -0.00001   0.00004   0.00004  -0.00003
  72        4S          0.00004   0.00019  -0.00095  -0.00082   0.00071
  73        5PX        -0.00000  -0.00001  -0.00000   0.00003  -0.00004
  74        5PY         0.00000   0.00000  -0.00001  -0.00002   0.00000
  75        5PZ        -0.00000  -0.00001  -0.00001   0.00003  -0.00002
  76        6PX         0.00001   0.00004   0.00007  -0.00016   0.00019
  77        6PY        -0.00001   0.00000   0.00007   0.00004   0.00002
  78        6PZ         0.00001   0.00004   0.00011  -0.00017   0.00016
  79        7PX         0.00014   0.00064  -0.00029  -0.00146   0.00145
  80        7PY        -0.00005  -0.00020   0.00058   0.00064  -0.00041
  81        7PZ         0.00005   0.00024   0.00044  -0.00054   0.00063
  82        8D 0       -0.00000  -0.00000   0.00000   0.00002   0.00000
  83        8D+1       -0.00000  -0.00001  -0.00000   0.00002  -0.00001
  84        8D-1       -0.00000  -0.00000   0.00002   0.00000  -0.00001
  85        8D+2        0.00000   0.00000  -0.00001  -0.00002  -0.00002
  86        8D-2       -0.00000   0.00000   0.00000  -0.00001  -0.00000
  87        9D 0        0.00001   0.00002   0.00002  -0.00008  -0.00001
  88        9D+1        0.00001   0.00001  -0.00008  -0.00006   0.00000
  89        9D-1        0.00001   0.00003  -0.00007  -0.00009   0.00011
  90        9D+2       -0.00001  -0.00002  -0.00006   0.00010   0.00004
  91        9D-2        0.00000  -0.00001   0.00003   0.00011  -0.00005
  92       10F 0        0.00000   0.00000  -0.00002  -0.00001   0.00001
  93       10F+1       -0.00000  -0.00000   0.00001   0.00001  -0.00001
  94       10F-1        0.00000   0.00001  -0.00000  -0.00003   0.00003
  95       10F+2       -0.00000  -0.00000   0.00001   0.00001  -0.00000
  96       10F-2       -0.00000  -0.00000  -0.00001   0.00000   0.00001
  97       10F+3        0.00000   0.00000   0.00001   0.00000   0.00002
  98       10F-3       -0.00000  -0.00001   0.00002   0.00002  -0.00002
  99 3   H  1S         -0.00000   0.00000   0.00004  -0.00001   0.00003
 100        2S         -0.00003  -0.00014  -0.00029   0.00047  -0.00053
 101        3S          0.00000   0.00001  -0.00012  -0.00004   0.00009
 102        4PX         0.00000   0.00000  -0.00000  -0.00001   0.00002
 103        4PY         0.00000   0.00001  -0.00000  -0.00002   0.00002
 104        4PZ         0.00000   0.00002  -0.00001  -0.00006   0.00004
 105        5PX        -0.00003  -0.00013   0.00007   0.00037  -0.00034
 106        5PY         0.00002   0.00008   0.00002  -0.00028   0.00023
 107        5PZ        -0.00001  -0.00001   0.00010   0.00001   0.00004
 108        6D 0        0.00000   0.00001  -0.00002  -0.00003   0.00002
 109        6D+1        0.00001   0.00002  -0.00001  -0.00004   0.00004
 110        6D-1       -0.00000  -0.00001  -0.00001   0.00003  -0.00003
 111        6D+2        0.00000   0.00000   0.00001  -0.00002  -0.00000
 112        6D-2        0.00000   0.00002  -0.00002  -0.00006   0.00004
 113 4   O  1S          0.00000  -0.00000   0.00000  -0.00001   0.00001
 114        2S          0.00001  -0.00003   0.00002  -0.00008   0.00008
 115        3S         -0.00001  -0.00001   0.00005  -0.00002   0.00003
 116        4S          0.00013   0.00034  -0.00079   0.00059  -0.00102
 117        5PX         0.00000  -0.00000  -0.00001  -0.00002   0.00001
 118        5PY        -0.00000  -0.00000   0.00001  -0.00001  -0.00000
 119        5PZ        -0.00000  -0.00000   0.00001  -0.00001   0.00002
 120        6PX        -0.00000   0.00001   0.00008   0.00014  -0.00006
 121        6PY        -0.00000  -0.00002  -0.00002   0.00003   0.00002
 122        6PZ         0.00000  -0.00001  -0.00006   0.00006  -0.00010
 123        7PX         0.00001   0.00009   0.00040   0.00049  -0.00012
 124        7PY         0.00004   0.00012  -0.00061   0.00034  -0.00048
 125        7PZ         0.00009   0.00029  -0.00075   0.00055  -0.00077
 126        8D 0        0.00000  -0.00001  -0.00002   0.00001   0.00001
 127        8D+1       -0.00000  -0.00000  -0.00001  -0.00002  -0.00000
 128        8D-1        0.00000  -0.00000   0.00000  -0.00001  -0.00001
 129        8D+2       -0.00000  -0.00001   0.00002  -0.00001   0.00002
 130        8D-2        0.00000   0.00000  -0.00001  -0.00001  -0.00001
 131        9D 0       -0.00001   0.00001   0.00005  -0.00002  -0.00004
 132        9D+1        0.00001   0.00001  -0.00001   0.00003   0.00001
 133        9D-1        0.00000   0.00002  -0.00009   0.00007  -0.00004
 134        9D+2        0.00002   0.00005  -0.00011   0.00004  -0.00012
 135        9D-2       -0.00000  -0.00000   0.00000  -0.00001   0.00006
 136       10F 0       -0.00000   0.00000   0.00002  -0.00001   0.00000
 137       10F+1        0.00000  -0.00000  -0.00001  -0.00001   0.00000
 138       10F-1        0.00000   0.00001  -0.00001   0.00001  -0.00001
 139       10F+2       -0.00000  -0.00000   0.00002  -0.00000   0.00000
 140       10F-2       -0.00000  -0.00000   0.00001   0.00001   0.00000
 141       10F+3       -0.00000   0.00000   0.00000   0.00001  -0.00000
 142       10F-3       -0.00001  -0.00001   0.00003  -0.00002   0.00003
 143 5   H  1S          0.00000   0.00001   0.00004   0.00003  -0.00001
 144        2S         -0.00005  -0.00015  -0.00019  -0.00044   0.00032
 145        3S          0.00001   0.00002  -0.00014   0.00000  -0.00007
 146        4PX         0.00000   0.00001  -0.00003   0.00002  -0.00003
 147        4PY        -0.00000  -0.00001   0.00002  -0.00000   0.00002
 148        4PZ         0.00000   0.00001  -0.00002   0.00001  -0.00002
 149        5PX         0.00000   0.00001   0.00013   0.00007  -0.00004
 150        5PY        -0.00002  -0.00006   0.00006  -0.00021   0.00018
 151        5PZ        -0.00003  -0.00009   0.00019  -0.00019   0.00026
 152        6D 0       -0.00000   0.00000   0.00001   0.00001   0.00001
 153        6D+1        0.00001   0.00001  -0.00002   0.00003  -0.00004
 154        6D-1       -0.00001  -0.00001   0.00003  -0.00004   0.00004
 155        6D+2        0.00001   0.00001  -0.00004   0.00002  -0.00002
 156        6D-2        0.00000   0.00001  -0.00000   0.00002  -0.00003
 157 6   O  1S          0.00000  -0.00001  -0.00000  -0.00002  -0.00003
 158        2S          0.00000  -0.00007  -0.00001  -0.00012  -0.00017
 159        3S         -0.00001  -0.00001  -0.00004  -0.00004  -0.00003
 160        4S          0.00004   0.00020   0.00095   0.00082   0.00071
 161        5PX         0.00000   0.00001  -0.00000   0.00003   0.00004
 162        5PY         0.00000   0.00000   0.00001   0.00002   0.00000
 163        5PZ         0.00000   0.00001  -0.00001   0.00003   0.00002
 164        6PX        -0.00001  -0.00004   0.00007  -0.00016  -0.00019
 165        6PY        -0.00001   0.00000  -0.00007  -0.00004   0.00002
 166        6PZ        -0.00001  -0.00004   0.00011  -0.00017  -0.00016
 167        7PX        -0.00014  -0.00064  -0.00029  -0.00145  -0.00145
 168        7PY        -0.00005  -0.00020  -0.00058  -0.00064  -0.00041
 169        7PZ        -0.00005  -0.00024   0.00045  -0.00054  -0.00063
 170        8D 0       -0.00000  -0.00000  -0.00000  -0.00002   0.00000
 171        8D+1       -0.00000  -0.00001   0.00000  -0.00002  -0.00001
 172        8D-1        0.00000   0.00000   0.00002   0.00000   0.00001
 173        8D+2        0.00000   0.00000   0.00001   0.00002  -0.00002
 174        8D-2        0.00000  -0.00000   0.00000  -0.00001   0.00000
 175        9D 0        0.00001   0.00002  -0.00002   0.00008  -0.00001
 176        9D+1        0.00001   0.00001   0.00008   0.00006   0.00000
 177        9D-1       -0.00001  -0.00003  -0.00007  -0.00009  -0.00011
 178        9D+2       -0.00001  -0.00002   0.00006  -0.00010   0.00004
 179        9D-2       -0.00000   0.00001   0.00003   0.00011   0.00005
 180       10F 0       -0.00000  -0.00000  -0.00002  -0.00001  -0.00001
 181       10F+1        0.00000   0.00000   0.00001   0.00001   0.00001
 182       10F-1        0.00000   0.00001   0.00000   0.00003   0.00003
 183       10F+2        0.00000   0.00000   0.00002   0.00001   0.00000
 184       10F-2       -0.00000  -0.00000   0.00001  -0.00000   0.00001
 185       10F+3       -0.00000  -0.00000   0.00001   0.00000  -0.00002
 186       10F-3       -0.00000  -0.00001  -0.00002  -0.00002  -0.00002
 187 7   H  1S         -0.00000  -0.00002   0.00004  -0.00003  -0.00007
 188        2S          0.00007   0.00038  -0.00057   0.00078   0.00093
 189        3S          0.00001   0.00008  -0.00007   0.00022   0.00027
 190        4PX        -0.00000  -0.00001   0.00001  -0.00001  -0.00001
 191        4PY        -0.00000  -0.00002  -0.00003  -0.00004  -0.00002
 192        4PZ         0.00000   0.00000   0.00003  -0.00001   0.00001
 193        5PX         0.00000  -0.00006   0.00039  -0.00010  -0.00022
 194        5PY         0.00003   0.00009   0.00020   0.00022   0.00013
 195        5PZ        -0.00002  -0.00010   0.00004  -0.00021  -0.00021
 196        6D 0        0.00001   0.00001   0.00003   0.00004   0.00000
 197        6D+1        0.00000   0.00002  -0.00004   0.00004   0.00004
 198        6D-1       -0.00000  -0.00000  -0.00001  -0.00000  -0.00000
 199        6D+2       -0.00000  -0.00000  -0.00006  -0.00000   0.00002
 200        6D-2       -0.00001  -0.00002  -0.00005  -0.00005  -0.00004
 201 8   O  1S          0.00000  -0.00000  -0.00000   0.00001   0.00001
 202        2S          0.00001  -0.00003  -0.00002   0.00008   0.00008
 203        3S         -0.00001  -0.00001  -0.00005   0.00002   0.00003
 204        4S          0.00013   0.00034   0.00079  -0.00059  -0.00102
 205        5PX        -0.00000   0.00000  -0.00001  -0.00002  -0.00001
 206        5PY        -0.00000  -0.00000  -0.00001   0.00001  -0.00000
 207        5PZ         0.00000   0.00000   0.00001  -0.00001  -0.00002
 208        6PX         0.00000  -0.00001   0.00008   0.00014   0.00006
 209        6PY        -0.00000  -0.00002   0.00002  -0.00003   0.00002
 210        6PZ        -0.00000   0.00001  -0.00006   0.00006   0.00010
 211        7PX        -0.00001  -0.00009   0.00041   0.00049   0.00012
 212        7PY         0.00004   0.00012   0.00061  -0.00034  -0.00048
 213        7PZ        -0.00009  -0.00029  -0.00075   0.00055   0.00077
 214        8D 0        0.00000  -0.00001   0.00002  -0.00001   0.00001
 215        8D+1       -0.00000  -0.00000   0.00001   0.00002  -0.00000
 216        8D-1       -0.00000   0.00000   0.00000  -0.00001   0.00001
 217        8D+2       -0.00000  -0.00001  -0.00002   0.00001   0.00002
 218        8D-2       -0.00000  -0.00000  -0.00001  -0.00001   0.00001
 219        9D 0       -0.00001   0.00001  -0.00005   0.00002  -0.00004
 220        9D+1        0.00001   0.00001   0.00001  -0.00003   0.00001
 221        9D-1       -0.00000  -0.00002  -0.00009   0.00007   0.00004
 222        9D+2        0.00002   0.00005   0.00011  -0.00004  -0.00012
 223        9D-2        0.00000   0.00000   0.00000  -0.00001  -0.00006
 224       10F 0        0.00000  -0.00000   0.00002  -0.00001  -0.00000
 225       10F+1        0.00000   0.00000  -0.00001  -0.00001  -0.00000
 226       10F-1        0.00000   0.00001   0.00001  -0.00001  -0.00001
 227       10F+2        0.00000   0.00000   0.00002  -0.00000  -0.00000
 228       10F-2       -0.00000  -0.00000  -0.00001  -0.00001   0.00000
 229       10F+3        0.00000  -0.00000   0.00000   0.00001   0.00000
 230       10F-3       -0.00001  -0.00001  -0.00003   0.00002   0.00003
 231 9   H  1S          0.00000   0.00001  -0.00004  -0.00003  -0.00001
 232        2S         -0.00005  -0.00015   0.00020   0.00044   0.00032
 233        3S          0.00001   0.00002   0.00014   0.00000  -0.00007
 234        4PX        -0.00000  -0.00001  -0.00003   0.00002   0.00003
 235        4PY        -0.00000  -0.00001  -0.00002   0.00000   0.00002
 236        4PZ        -0.00000  -0.00001  -0.00002   0.00001   0.00002
 237        5PX        -0.00000  -0.00001   0.00013   0.00007   0.00004
 238        5PY        -0.00002  -0.00006  -0.00006   0.00021   0.00018
 239        5PZ         0.00003   0.00009   0.00019  -0.00019  -0.00026
 240        6D 0       -0.00000   0.00000  -0.00001  -0.00001   0.00001
 241        6D+1        0.00001   0.00001   0.00002  -0.00003  -0.00004
 242        6D-1        0.00001   0.00001   0.00003  -0.00004  -0.00004
 243        6D+2        0.00001   0.00001   0.00004  -0.00002  -0.00002
 244        6D-2       -0.00000  -0.00001  -0.00000   0.00002   0.00003
 245 10  H  1S         -0.00000   0.00000  -0.00004   0.00001   0.00003
 246        2S         -0.00003  -0.00014   0.00029  -0.00047  -0.00053
 247        3S          0.00000   0.00001   0.00012   0.00004   0.00009
 248        4PX        -0.00000  -0.00000  -0.00000  -0.00001  -0.00002
 249        4PY         0.00000   0.00001   0.00000   0.00002   0.00002
 250        4PZ        -0.00000  -0.00002  -0.00001  -0.00006  -0.00004
 251        5PX         0.00003   0.00013   0.00007   0.00037   0.00034
 252        5PY         0.00002   0.00008  -0.00002   0.00028   0.00023
 253        5PZ         0.00001   0.00001   0.00010   0.00001  -0.00004
 254        6D 0        0.00000   0.00001   0.00002   0.00003   0.00002
 255        6D+1        0.00001   0.00002   0.00001   0.00004   0.00004
 256        6D-1        0.00000   0.00001  -0.00001   0.00003   0.00003
 257        6D+2        0.00000   0.00000  -0.00001   0.00001  -0.00000
 258        6D-2       -0.00000  -0.00002  -0.00002  -0.00006  -0.00004
 259 11  H  1S          0.00000  -0.00000   0.00002   0.00005  -0.00001
 260        2S         -0.00003  -0.00001  -0.00031  -0.00042  -0.00005
 261        3S          0.00001   0.00003  -0.00002  -0.00019  -0.00016
 262        4PX         0.00000   0.00001   0.00004  -0.00001  -0.00001
 263        4PY        -0.00000  -0.00001  -0.00000   0.00002   0.00002
 264        4PZ        -0.00000  -0.00001  -0.00001   0.00001   0.00003
 265        5PX        -0.00001  -0.00003  -0.00005   0.00014   0.00010
 266        5PY        -0.00002  -0.00003  -0.00025  -0.00009   0.00006
 267        5PZ         0.00004   0.00008   0.00030   0.00000  -0.00018
 268        6D 0       -0.00000  -0.00000  -0.00002   0.00001   0.00003
 269        6D+1       -0.00000  -0.00001  -0.00003  -0.00001   0.00001
 270        6D-1        0.00001   0.00001   0.00007   0.00000  -0.00004
 271        6D+2        0.00001   0.00001   0.00004  -0.00001  -0.00004
 272        6D-2        0.00000   0.00001   0.00002   0.00002  -0.00001
 273 12  H  1S          0.00000  -0.00000  -0.00002  -0.00005  -0.00001
 274        2S         -0.00003  -0.00001   0.00031   0.00042  -0.00005
 275        3S          0.00001   0.00003   0.00003   0.00019  -0.00016
 276        4PX        -0.00000  -0.00001   0.00004  -0.00001   0.00001
 277        4PY        -0.00000  -0.00001   0.00000  -0.00002   0.00002
 278        4PZ         0.00000   0.00001  -0.00001   0.00001  -0.00003
 279        5PX         0.00001   0.00003  -0.00005   0.00014  -0.00010
 280        5PY        -0.00002  -0.00003   0.00025   0.00009   0.00006
 281        5PZ        -0.00004  -0.00008   0.00030   0.00000   0.00018
 282        6D 0       -0.00000  -0.00000   0.00002  -0.00001   0.00003
 283        6D+1       -0.00000  -0.00001   0.00003   0.00001   0.00001
 284        6D-1       -0.00001  -0.00001   0.00007   0.00000   0.00004
 285        6D+2        0.00001   0.00001  -0.00004   0.00001  -0.00004
 286        6D-2       -0.00000  -0.00001   0.00002   0.00002   0.00001
 287 13  H  1S         -0.00000  -0.00002  -0.00004   0.00003  -0.00007
 288        2S          0.00007   0.00038   0.00057  -0.00078   0.00093
 289        3S          0.00001   0.00008   0.00007  -0.00022   0.00027
 290        4PX         0.00000   0.00001   0.00001  -0.00001   0.00001
 291        4PY        -0.00000  -0.00002   0.00003   0.00004  -0.00002
 292        4PZ        -0.00000  -0.00000   0.00003  -0.00001  -0.00001
 293        5PX        -0.00000   0.00006   0.00039  -0.00010   0.00022
 294        5PY         0.00003   0.00009  -0.00020  -0.00022   0.00013
 295        5PZ         0.00002   0.00010   0.00004  -0.00021   0.00021
 296        6D 0        0.00001   0.00001  -0.00003  -0.00004   0.00000
 297        6D+1        0.00000   0.00002   0.00004  -0.00004   0.00004
 298        6D-1        0.00000   0.00000  -0.00001  -0.00000   0.00000
 299        6D+2       -0.00000  -0.00000   0.00006   0.00000   0.00002
 300        6D-2        0.00001   0.00002  -0.00005  -0.00005   0.00004
                           6         7         8         9        10
                           O         O         O         O         O
     Eigenvalues --   -19.17272 -19.17272 -19.16619 -19.16619  -3.68484
   1 1   Fe 1S          0.00000   0.00000   0.00000   0.00000   0.11203
   2        2S          0.00001   0.00002   0.00000   0.00001  -0.43567
   3        3S         -0.00008  -0.00009  -0.00002  -0.00005   0.52473
   4        4S          0.00185   0.00210   0.00065   0.00184   0.00463
   5        5S          0.00130   0.00148   0.00043   0.00123   0.00305
   6        6S          0.00023   0.00026   0.00005   0.00015   0.62934
   7        7S          0.00021   0.00024   0.00009   0.00026  -0.00111
   8        8PX         0.00000  -0.00000  -0.00000   0.00000   0.00000
   9        8PY        -0.00001  -0.00001   0.00000   0.00001   0.00255
  10        8PZ        -0.00000   0.00000   0.00001  -0.00000  -0.00000
  11        9PX         0.00043  -0.00038  -0.00015   0.00005  -0.00000
  12        9PY        -0.00037  -0.00042   0.00015   0.00043  -0.00020
  13        9PZ        -0.00007   0.00006   0.00049  -0.00017   0.00000
  14       10PX         0.00036  -0.00032  -0.00042   0.00015  -0.00000
  15       10PY        -0.00046  -0.00052   0.00028   0.00079   0.00145
  16       10PZ        -0.00040   0.00036   0.00010  -0.00004  -0.00000
  17       11PX        -0.00116   0.00102  -0.00039   0.00014  -0.00000
  18       11PY         0.00055   0.00063   0.00002   0.00006  -0.00073
  19       11PZ        -0.00078   0.00069  -0.00201   0.00071  -0.00000
  20       12PX         0.00012  -0.00011  -0.00004   0.00001   0.00001
  21       12PY        -0.00011  -0.00012   0.00004   0.00010   0.00551
  22       12PZ        -0.00001   0.00001   0.00016  -0.00005  -0.00001
  23       13PX        -0.00003   0.00003  -0.00002   0.00001   0.00000
  24       13PY        -0.00004  -0.00005  -0.00002  -0.00006   0.00011
  25       13PZ        -0.00002   0.00002  -0.00000   0.00000  -0.00000
  26       14D 0        0.00009   0.00011  -0.00005  -0.00013   0.00162
  27       14D+1        0.00001   0.00001   0.00001   0.00003   0.00088
  28       14D-1       -0.00001   0.00001  -0.00020   0.00007   0.00000
  29       14D+2       -0.00002  -0.00002   0.00001   0.00002   0.00112
  30       14D-2        0.00016  -0.00014   0.00000  -0.00000  -0.00000
  31       15D 0       -0.00037  -0.00042   0.00017   0.00049  -0.00007
  32       15D+1        0.00001   0.00001  -0.00003  -0.00007  -0.00026
  33       15D-1       -0.00002   0.00001   0.00072  -0.00025  -0.00000
  34       15D+2        0.00014   0.00016  -0.00005  -0.00015  -0.00045
  35       15D-2       -0.00061   0.00053   0.00002  -0.00001   0.00000
  36       16D 0       -0.00002  -0.00002   0.00001   0.00002   0.00178
  37       16D+1       -0.00001  -0.00001  -0.00000  -0.00001   0.00112
  38       16D-1        0.00001  -0.00001   0.00003  -0.00001   0.00000
  39       16D+2       -0.00000  -0.00000   0.00000   0.00001   0.00131
  40       16D-2       -0.00002   0.00002  -0.00000   0.00000  -0.00000
  41       17D 0        0.00003   0.00003  -0.00002  -0.00007   0.00023
  42       17D+1        0.00016   0.00018   0.00005   0.00014   0.00038
  43       17D-1        0.00045  -0.00039   0.00054  -0.00019   0.00000
  44       17D+2        0.00003   0.00003   0.00016   0.00045   0.00039
  45       17D-2       -0.00029   0.00025  -0.00023   0.00008  -0.00000
  46       18F 0       -0.00000   0.00000   0.00001  -0.00000  -0.00000
  47       18F+1       -0.00004   0.00003  -0.00001   0.00000  -0.00000
  48       18F-1        0.00002   0.00002   0.00002   0.00007   0.00010
  49       18F+2       -0.00000   0.00000  -0.00005   0.00002  -0.00000
  50       18F-2       -0.00000  -0.00000  -0.00000  -0.00001   0.00011
  51       18F+3       -0.00002   0.00002   0.00000  -0.00000   0.00000
  52       18F-3       -0.00004  -0.00005  -0.00000  -0.00001   0.00013
  53       19F 0        0.00002  -0.00001  -0.00007   0.00002   0.00000
  54       19F+1        0.00017  -0.00015   0.00003  -0.00001   0.00000
  55       19F-1       -0.00007  -0.00008  -0.00010  -0.00029  -0.00038
  56       19F+2        0.00001  -0.00001   0.00023  -0.00008   0.00000
  57       19F-2        0.00001   0.00001   0.00001   0.00003  -0.00009
  58       19F+3        0.00009  -0.00008  -0.00002   0.00001  -0.00000
  59       19F-3        0.00020   0.00023   0.00001   0.00004  -0.00009
  60       20G 0        0.00002   0.00002  -0.00000  -0.00001   0.00069
  61       20G+1       -0.00000  -0.00000  -0.00000  -0.00000  -0.00029
  62       20G-1        0.00000  -0.00000   0.00004  -0.00001   0.00001
  63       20G+2       -0.00001  -0.00001  -0.00001  -0.00004   0.00411
  64       20G-2        0.00003  -0.00002  -0.00001   0.00000  -0.00000
  65       20G+3       -0.00000  -0.00000   0.00000   0.00000   0.00071
  66       20G-3       -0.00001   0.00000  -0.00002   0.00001   0.00000
  67       20G+4       -0.00003  -0.00003   0.00000   0.00001  -0.00195
  68       20G-4       -0.00002   0.00002   0.00000  -0.00000   0.00000
  69 2   O  1S          0.97127   0.06305  -0.00003   0.00004  -0.00058
  70        2S         -0.00717  -0.00051   0.00009   0.00003   0.00073
  71        3S          0.05101   0.00331  -0.00002  -0.00001  -0.00006
  72        4S          0.00511   0.00059   0.00021  -0.00037   0.00295
  73        5PX        -0.00087  -0.00006  -0.00001  -0.00001   0.00040
  74        5PY         0.00039   0.00003  -0.00001   0.00002  -0.00028
  75        5PZ         0.00035   0.00004  -0.00001  -0.00000   0.00001
  76        6PX        -0.00112  -0.00005   0.00004   0.00008   0.00091
  77        6PY         0.00084   0.00000   0.00008  -0.00009  -0.00060
  78        6PZ         0.00026  -0.00010   0.00016   0.00002   0.00022
  79        7PX        -0.00199  -0.00044   0.00019   0.00023   0.00319
  80        7PY         0.00129  -0.00011   0.00036   0.00018  -0.00126
  81        7PZ         0.00039  -0.00014   0.00063   0.00002   0.00096
  82        8D 0       -0.00003  -0.00001  -0.00000   0.00000  -0.00003
  83        8D+1        0.00008   0.00000   0.00001   0.00000  -0.00001
  84        8D-1        0.00015   0.00001   0.00000  -0.00000  -0.00001
  85        8D+2        0.00014   0.00001   0.00000  -0.00000   0.00000
  86        8D-2       -0.00016  -0.00000   0.00000  -0.00000  -0.00003
  87        9D 0        0.00051   0.00001   0.00005  -0.00002  -0.00050
  88        9D+1        0.00037   0.00007  -0.00011  -0.00003   0.00012
  89        9D-1        0.00052  -0.00001   0.00009   0.00000   0.00014
  90        9D+2       -0.00007   0.00006  -0.00008  -0.00002   0.00037
  91        9D-2        0.00039  -0.00001  -0.00004   0.00000  -0.00109
  92       10F 0        0.00009   0.00001  -0.00000  -0.00001   0.00000
  93       10F+1       -0.00008  -0.00000   0.00000   0.00000  -0.00014
  94       10F-1        0.00015  -0.00000   0.00002  -0.00000   0.00013
  95       10F+2       -0.00026  -0.00001  -0.00001   0.00001  -0.00000
  96       10F-2       -0.00003  -0.00000  -0.00000   0.00000  -0.00001
  97       10F+3       -0.00005  -0.00001   0.00001   0.00001  -0.00006
  98       10F-3       -0.00005  -0.00000  -0.00000   0.00000  -0.00023
  99 3   H  1S          0.00031  -0.00001   0.00004  -0.00000   0.00010
 100        2S         -0.00353   0.00010  -0.00086   0.00007  -0.00097
 101        3S         -0.00048   0.00009  -0.00015   0.00007   0.00026
 102        4PX        -0.00018  -0.00003   0.00002  -0.00001   0.00010
 103        4PY         0.00032   0.00001   0.00002  -0.00000  -0.00001
 104        4PZ         0.00033  -0.00001   0.00003  -0.00001   0.00009
 105        5PX        -0.00039   0.00013  -0.00015   0.00001  -0.00067
 106        5PY         0.00120  -0.00002   0.00024  -0.00006   0.00056
 107        5PZ         0.00145   0.00001   0.00025  -0.00001   0.00015
 108        6D 0       -0.00039  -0.00001  -0.00002  -0.00000  -0.00001
 109        6D+1        0.00044   0.00001   0.00002  -0.00000  -0.00001
 110        6D-1       -0.00099  -0.00004  -0.00005   0.00001  -0.00009
 111        6D+2        0.00042   0.00002   0.00002  -0.00001  -0.00000
 112        6D-2        0.00031   0.00000   0.00001  -0.00000   0.00009
 113 4   O  1S          0.00005  -0.00006   0.87822   0.41971  -0.00056
 114        2S          0.00011  -0.00007  -0.00626  -0.00319   0.00090
 115        3S         -0.00002  -0.00001   0.04606   0.02203  -0.00001
 116        4S          0.00001   0.00092   0.00534   0.00305   0.00249
 117        5PX        -0.00001   0.00001   0.00002   0.00002  -0.00001
 118        5PY        -0.00000  -0.00001  -0.00081  -0.00039   0.00031
 119        5PZ        -0.00000   0.00000  -0.00017  -0.00010   0.00043
 120        6PX         0.00015  -0.00012   0.00016   0.00001  -0.00010
 121        6PY        -0.00000   0.00001  -0.00115  -0.00049   0.00044
 122        6PZ         0.00003  -0.00003  -0.00103  -0.00040   0.00078
 123        7PX         0.00062  -0.00037   0.00022  -0.00003  -0.00007
 124        7PY        -0.00019  -0.00022  -0.00199  -0.00071   0.00146
 125        7PZ         0.00003  -0.00004  -0.00128  -0.00057   0.00190
 126        8D 0        0.00000  -0.00000  -0.00008  -0.00005   0.00004
 127        8D+1        0.00001  -0.00001   0.00004   0.00002  -0.00001
 128        8D-1        0.00000  -0.00001   0.00017   0.00008   0.00005
 129        8D+2        0.00000   0.00000   0.00006   0.00002  -0.00003
 130        8D-2       -0.00000   0.00000  -0.00002  -0.00001  -0.00000
 131        9D 0       -0.00004   0.00001  -0.00058  -0.00020   0.00041
 132        9D+1       -0.00010   0.00008   0.00017   0.00009   0.00004
 133        9D-1        0.00000   0.00008  -0.00007  -0.00000   0.00095
 134        9D+2       -0.00000  -0.00003   0.00065   0.00032  -0.00011
 135        9D-2       -0.00010   0.00007  -0.00007   0.00000  -0.00002
 136       10F 0       -0.00000   0.00001   0.00012   0.00006   0.00001
 137       10F+1       -0.00001   0.00001  -0.00007  -0.00003  -0.00001
 138       10F-1        0.00000  -0.00000   0.00004   0.00001   0.00021
 139       10F+2        0.00000  -0.00000  -0.00011  -0.00006  -0.00015
 140       10F-2        0.00001  -0.00001  -0.00005  -0.00002  -0.00003
 141       10F+3        0.00000  -0.00000   0.00000   0.00000   0.00001
 142       10F-3       -0.00001  -0.00000  -0.00028  -0.00012  -0.00007
 143 5   H  1S          0.00004  -0.00002   0.00028   0.00010   0.00006
 144        2S         -0.00070   0.00015  -0.00376  -0.00146  -0.00026
 145        3S         -0.00016   0.00006  -0.00050  -0.00013   0.00036
 146        4PX         0.00003  -0.00003   0.00036   0.00015   0.00007
 147        4PY        -0.00001   0.00000  -0.00031  -0.00014   0.00003
 148        4PZ         0.00001  -0.00001  -0.00014  -0.00009   0.00009
 149        5PX         0.00022   0.00003   0.00162   0.00068  -0.00001
 150        5PY        -0.00017   0.00010  -0.00101  -0.00043  -0.00040
 151        5PZ        -0.00012   0.00007  -0.00053  -0.00011  -0.00048
 152        6D 0        0.00002  -0.00001   0.00045   0.00021   0.00000
 153        6D+1        0.00002  -0.00000   0.00046   0.00019  -0.00000
 154        6D-1       -0.00001   0.00001  -0.00026  -0.00011  -0.00009
 155        6D+2       -0.00002  -0.00001  -0.00031  -0.00013  -0.00000
 156        6D-2        0.00004  -0.00002   0.00092   0.00042   0.00006
 157 6   O  1S         -0.06306   0.97127   0.00005   0.00001  -0.00058
 158        2S          0.00043  -0.00718  -0.00005   0.00008   0.00073
 159        3S         -0.00332   0.05101   0.00001  -0.00002  -0.00006
 160        4S         -0.00007   0.00515  -0.00039  -0.00016   0.00296
 161        5PX        -0.00005   0.00087   0.00000   0.00001  -0.00040
 162        5PY        -0.00002   0.00039   0.00002   0.00001  -0.00028
 163        5PZ         0.00001  -0.00035  -0.00001   0.00001  -0.00001
 164        6PX        -0.00009   0.00112  -0.00002  -0.00008  -0.00091
 165        6PY        -0.00010   0.00084  -0.00012  -0.00002  -0.00060
 166        6PZ         0.00014  -0.00024   0.00011  -0.00012  -0.00022
 167        7PX         0.00018   0.00203   0.00000  -0.00030  -0.00319
 168        7PY        -0.00028   0.00126  -0.00017   0.00037  -0.00126
 169        7PZ         0.00019  -0.00037   0.00047  -0.00041  -0.00096
 170        8D 0       -0.00000  -0.00003   0.00000   0.00000  -0.00003
 171        8D+1       -0.00001   0.00008  -0.00001   0.00001  -0.00001
 172        8D-1        0.00001  -0.00015   0.00001   0.00000   0.00001
 173        8D+2       -0.00001   0.00014  -0.00000   0.00000   0.00000
 174        8D-2       -0.00002   0.00016   0.00000   0.00000   0.00003
 175        9D 0       -0.00006   0.00051  -0.00005   0.00001  -0.00050
 176        9D+1        0.00002   0.00037   0.00007  -0.00009   0.00011
 177        9D-1        0.00008  -0.00051   0.00007  -0.00006  -0.00014
 178        9D+2        0.00007  -0.00006   0.00005  -0.00006   0.00037
 179        9D-2        0.00006  -0.00039  -0.00003   0.00002   0.00109
 180       10F 0        0.00000  -0.00009   0.00000   0.00001  -0.00000
 181       10F+1       -0.00001   0.00008  -0.00000  -0.00000   0.00014
 182       10F-1       -0.00002   0.00015  -0.00002   0.00001   0.00013
 183       10F+2       -0.00002   0.00026  -0.00001  -0.00000   0.00000
 184       10F-2        0.00000  -0.00004   0.00000   0.00000  -0.00001
 185       10F+3       -0.00000   0.00005   0.00000  -0.00001   0.00006
 186       10F-3        0.00001  -0.00005   0.00000   0.00000  -0.00023
 187 7   H  1S         -0.00002   0.00037  -0.00002  -0.00000  -0.00011
 188        2S         -0.00015  -0.00335  -0.00011   0.00049   0.00103
 189        3S         -0.00002  -0.00049  -0.00006  -0.00007   0.00039
 190        4PX        -0.00001   0.00039   0.00001  -0.00003  -0.00001
 191        4PY        -0.00001   0.00009   0.00001  -0.00000  -0.00014
 192        4PZ        -0.00001   0.00013   0.00001  -0.00002   0.00009
 193        5PX         0.00001   0.00158   0.00006  -0.00016   0.00009
 194        5PY         0.00001   0.00006   0.00000  -0.00002   0.00033
 195        5PZ         0.00004   0.00091  -0.00003  -0.00008  -0.00022
 196        6D 0       -0.00002   0.00024   0.00001  -0.00000   0.00001
 197        6D+1        0.00004  -0.00085  -0.00000   0.00002  -0.00002
 198        6D-1        0.00001  -0.00013  -0.00000   0.00000   0.00006
 199        6D+2        0.00004  -0.00083  -0.00000   0.00003  -0.00001
 200        6D-2        0.00001  -0.00011  -0.00000   0.00000  -0.00002
 201 8   O  1S         -0.00006   0.00005  -0.41977   0.87819  -0.00056
 202        2S         -0.00008   0.00010   0.00287  -0.00642   0.00090
 203        3S         -0.00001  -0.00002  -0.02201   0.04608  -0.00001
 204        4S          0.00091   0.00013  -0.00224   0.00573   0.00249
 205        5PX        -0.00001   0.00001   0.00000  -0.00002   0.00001
 206        5PY        -0.00001  -0.00001   0.00039  -0.00082   0.00031
 207        5PZ        -0.00000   0.00000  -0.00007   0.00019  -0.00043
 208        6PX         0.00014  -0.00013   0.00012  -0.00011   0.00010
 209        6PY         0.00001   0.00000   0.00059  -0.00111   0.00044
 210        6PZ         0.00003  -0.00002  -0.00055   0.00096  -0.00078
 211        7PX         0.00045  -0.00056   0.00019  -0.00012   0.00007
 212        7PY        -0.00019  -0.00021   0.00110  -0.00180   0.00146
 213        7PZ         0.00004  -0.00002  -0.00064   0.00125  -0.00190
 214        8D 0       -0.00000   0.00000   0.00004  -0.00009   0.00004
 215        8D+1       -0.00001   0.00001  -0.00002   0.00004  -0.00001
 216        8D-1        0.00001  -0.00000   0.00008  -0.00017  -0.00005
 217        8D+2        0.00000   0.00000  -0.00003   0.00005  -0.00003
 218        8D-2       -0.00000   0.00000  -0.00001   0.00002   0.00000
 219        9D 0        0.00002  -0.00003   0.00033  -0.00052   0.00041
 220        9D+1        0.00009  -0.00009  -0.00007   0.00017   0.00004
 221        9D-1       -0.00008  -0.00001  -0.00005   0.00004  -0.00095
 222        9D+2       -0.00003  -0.00000  -0.00030   0.00066  -0.00011
 223        9D-2       -0.00008   0.00009  -0.00006   0.00004   0.00002
 224       10F 0       -0.00001   0.00000   0.00005  -0.00012  -0.00001
 225       10F+1       -0.00001   0.00001  -0.00003   0.00007   0.00001
 226       10F-1       -0.00000   0.00000  -0.00002   0.00003   0.00021
 227       10F+2        0.00000  -0.00000  -0.00005   0.00011   0.00015
 228       10F-2       -0.00001   0.00001   0.00002  -0.00005  -0.00003
 229       10F+3        0.00000  -0.00000   0.00000  -0.00001  -0.00001
 230       10F-3       -0.00000  -0.00001   0.00014  -0.00027  -0.00007
 231 9   H  1S         -0.00002   0.00003  -0.00016   0.00026   0.00006
 232        2S          0.00023  -0.00067   0.00200  -0.00350  -0.00026
 233        3S          0.00008  -0.00015   0.00031  -0.00042   0.00036
 234        4PX         0.00003  -0.00002   0.00019  -0.00034  -0.00007
 235        4PY         0.00001  -0.00001   0.00015  -0.00030   0.00003
 236        4PZ         0.00001  -0.00001  -0.00006   0.00016  -0.00009
 237        5PX         0.00000  -0.00023   0.00084  -0.00155   0.00001
 238        5PY         0.00013  -0.00016   0.00051  -0.00097  -0.00040
 239        5PZ        -0.00008   0.00011  -0.00035   0.00042   0.00048
 240        6D 0       -0.00001   0.00002  -0.00022   0.00044   0.00000
 241        6D+1       -0.00001   0.00002  -0.00024   0.00044  -0.00000
 242        6D-1       -0.00001   0.00001  -0.00013   0.00025   0.00009
 243        6D+2       -0.00000  -0.00002   0.00016  -0.00030  -0.00000
 244        6D-2        0.00003  -0.00003   0.00045  -0.00090  -0.00006
 245 10  H  1S         -0.00005   0.00030  -0.00004   0.00003   0.00010
 246        2S          0.00055  -0.00349   0.00071  -0.00049  -0.00097
 247        3S          0.00015  -0.00047   0.00016  -0.00004   0.00026
 248        4PX         0.00001   0.00018   0.00002  -0.00001  -0.00010
 249        4PY        -0.00003   0.00031  -0.00002   0.00001  -0.00001
 250        4PZ         0.00005  -0.00033   0.00003  -0.00002  -0.00009
 251        5PX        -0.00018   0.00037  -0.00012   0.00009   0.00067
 252        5PY        -0.00017   0.00119  -0.00022   0.00011   0.00056
 253        5PZ         0.00018  -0.00144   0.00020  -0.00015  -0.00015
 254        6D 0        0.00004  -0.00039   0.00001  -0.00002  -0.00001
 255        6D+1       -0.00005   0.00044  -0.00001   0.00001  -0.00001
 256        6D-1       -0.00009   0.00098  -0.00005   0.00003   0.00009
 257        6D+2       -0.00003   0.00042  -0.00002   0.00001  -0.00000
 258        6D-2        0.00004  -0.00031   0.00001  -0.00001  -0.00009
 259 11  H  1S          0.00001   0.00001  -0.00016   0.00028   0.00002
 260        2S         -0.00067   0.00028   0.00169  -0.00349  -0.00031
 261        3S         -0.00004  -0.00007   0.00025  -0.00045   0.00020
 262        4PX         0.00002  -0.00002  -0.00014   0.00029   0.00014
 263        4PY        -0.00002   0.00002   0.00014  -0.00028   0.00003
 264        4PZ         0.00001  -0.00001  -0.00010   0.00024  -0.00008
 265        5PX         0.00024  -0.00007  -0.00067   0.00140  -0.00004
 266        5PY        -0.00012   0.00009   0.00040  -0.00093  -0.00047
 267        5PZ         0.00011  -0.00003  -0.00047   0.00082   0.00051
 268        6D 0        0.00002  -0.00001  -0.00008   0.00018   0.00002
 269        6D+1       -0.00002   0.00001   0.00034  -0.00066  -0.00002
 270        6D-1        0.00001  -0.00001  -0.00022   0.00046   0.00010
 271        6D+2       -0.00002   0.00000   0.00010  -0.00020  -0.00002
 272        6D-2        0.00003  -0.00002  -0.00038   0.00079   0.00006
 273 12  H  1S          0.00001   0.00001   0.00030   0.00012   0.00002
 274        2S          0.00036  -0.00063  -0.00350  -0.00166  -0.00031
 275        3S         -0.00006  -0.00005  -0.00048  -0.00019   0.00020
 276        4PX         0.00002  -0.00002  -0.00029  -0.00014  -0.00014
 277        4PY         0.00002  -0.00001  -0.00029  -0.00013   0.00003
 278        4PZ         0.00001  -0.00001  -0.00023  -0.00012   0.00007
 279        5PX         0.00010  -0.00023  -0.00140  -0.00067   0.00003
 280        5PY         0.00011  -0.00011  -0.00089  -0.00047  -0.00047
 281        5PZ         0.00004  -0.00011  -0.00088  -0.00034  -0.00051
 282        6D 0       -0.00002   0.00002   0.00018   0.00009   0.00002
 283        6D+1        0.00001  -0.00002  -0.00068  -0.00030  -0.00002
 284        6D-1        0.00001  -0.00001  -0.00046  -0.00022  -0.00010
 285        6D+2        0.00000  -0.00002  -0.00020  -0.00009  -0.00002
 286        6D-2        0.00003  -0.00003  -0.00079  -0.00038  -0.00006
 287 13  H  1S          0.00037   0.00003   0.00001  -0.00001  -0.00011
 288        2S         -0.00331  -0.00058   0.00039   0.00031   0.00103
 289        3S         -0.00048  -0.00008  -0.00000  -0.00009   0.00039
 290        4PX        -0.00039  -0.00004   0.00003   0.00002   0.00001
 291        4PY         0.00009   0.00000  -0.00001   0.00000  -0.00014
 292        4PZ        -0.00013  -0.00001   0.00002   0.00000  -0.00009
 293        5PX        -0.00156  -0.00021   0.00015   0.00008  -0.00009
 294        5PY         0.00006   0.00001  -0.00001  -0.00001   0.00033
 295        5PZ        -0.00090  -0.00015   0.00003   0.00008   0.00022
 296        6D 0        0.00024   0.00001  -0.00001   0.00000   0.00001
 297        6D+1       -0.00085  -0.00007   0.00001   0.00002  -0.00002
 298        6D-1        0.00013   0.00001  -0.00000  -0.00000  -0.00006
 299        6D+2       -0.00083  -0.00007   0.00002   0.00002  -0.00001
 300        6D-2        0.00011   0.00000  -0.00000   0.00000   0.00002
                          11        12        13        14        15
                           O         O         O         O         O
     Eigenvalues --    -2.48817  -2.47615  -2.46712  -1.34059  -1.33669
   1 1   Fe 1S          0.00000  -0.00000  -0.00032  -0.00617  -0.00000
   2        2S         -0.00000   0.00000   0.00082   0.02145   0.00001
   3        3S          0.00000  -0.00000   0.00144  -0.04695  -0.00001
   4        4S          0.00000   0.00000  -0.00809   0.06588   0.00003
   5        5S          0.00000   0.00000  -0.00574   0.06248   0.00003
   6        6S          0.00000   0.00000  -0.00719  -0.02467  -0.00000
   7        7S         -0.00000  -0.00000  -0.00023   0.01080   0.00000
   8        8PX         0.14676   0.32761   0.00044   0.00000  -0.02127
   9        8PY         0.00008  -0.00052   0.35864   0.00883   0.00000
  10        8PZ         0.32780  -0.14651  -0.00029  -0.00000  -0.00046
  11        9PX        -0.22617  -0.50592  -0.00068  -0.00001   0.03945
  12        9PY        -0.00013   0.00080  -0.55464  -0.01491  -0.00000
  13        9PZ        -0.50735   0.22670   0.00045   0.00001   0.00092
  14       10PX         0.02272   0.04996   0.00007  -0.00000   0.02638
  15       10PY         0.00001  -0.00008   0.05494  -0.00759  -0.00000
  16       10PZ         0.04753  -0.02197  -0.00004   0.00000   0.00304
  17       11PX         0.00586   0.01011   0.00001  -0.00001   0.02383
  18       11PY         0.00000  -0.00001   0.01072  -0.00821  -0.00001
  19       11PZ         0.01148  -0.00399  -0.00001   0.00000   0.00666
  20       12PX         0.24646   0.54988   0.00074   0.00001  -0.03940
  21       12PY         0.00014  -0.00087   0.60171   0.01660   0.00001
  22       12PZ         0.54988  -0.24577  -0.00048  -0.00001  -0.00097
  23       13PX        -0.00031  -0.00078  -0.00000   0.00000  -0.00279
  24       13PY         0.00000   0.00000  -0.00074   0.00136   0.00000
  25       13PZ        -0.00079   0.00021   0.00000  -0.00000  -0.00069
  26       14D 0       -0.00000  -0.00000   0.00100  -0.00606   0.00000
  27       14D+1        0.00000   0.00000  -0.00016   0.00026   0.00001
  28       14D-1        0.00120  -0.00059  -0.00000  -0.00000  -0.00021
  29       14D+2       -0.00000   0.00000  -0.00049   0.00256  -0.00001
  30       14D-2       -0.00060  -0.00099  -0.00000   0.00000  -0.01731
  31       15D 0        0.00000  -0.00000  -0.00006  -0.00432   0.00000
  32       15D+1       -0.00000  -0.00000   0.00029  -0.00010   0.00001
  33       15D-1       -0.00144   0.00061   0.00000  -0.00000  -0.00020
  34       15D+2        0.00000  -0.00000   0.00114   0.00246  -0.00001
  35       15D-2        0.00054   0.00041  -0.00000  -0.00000  -0.01393
  36       16D 0       -0.00000   0.00000  -0.00139  -0.00671   0.00000
  37       16D+1        0.00000  -0.00000  -0.00026   0.00012   0.00001
  38       16D-1        0.00188  -0.00113  -0.00000  -0.00000  -0.00031
  39       16D+2        0.00000   0.00001  -0.00279   0.00281  -0.00001
  40       16D-2        0.00054   0.00179   0.00000   0.00000  -0.01892
  41       17D 0        0.00000   0.00000  -0.00090   0.00140   0.00000
  42       17D+1       -0.00000  -0.00000   0.00002  -0.00076  -0.00000
  43       17D-1       -0.00173   0.00039  -0.00000   0.00000  -0.00250
  44       17D+2        0.00000  -0.00000   0.00098  -0.00152   0.00001
  45       17D-2        0.00107   0.00126   0.00000  -0.00000   0.00809
  46       18F 0       -0.00127   0.00118  -0.00000   0.00000  -0.00001
  47       18F+1       -0.00145  -0.00283  -0.00000  -0.00000   0.00044
  48       18F-1       -0.00001   0.00000   0.00277  -0.00026  -0.00000
  49       18F+2       -0.00447   0.00080  -0.00000   0.00000   0.00006
  50       18F-2        0.00000  -0.00000   0.00014   0.00004   0.00000
  51       18F+3        0.00046   0.00228  -0.00000   0.00000  -0.00004
  52       18F-3       -0.00000  -0.00000  -0.00175   0.00036   0.00000
  53       19F 0       -0.00110   0.00094  -0.00000   0.00000   0.00016
  54       19F+1       -0.00131  -0.00300  -0.00000  -0.00000   0.00264
  55       19F-1       -0.00001   0.00000   0.00323  -0.00314  -0.00000
  56       19F+2       -0.00437   0.00086  -0.00000   0.00000  -0.00018
  57       19F-2        0.00000  -0.00000   0.00034   0.00025   0.00000
  58       19F+3        0.00050   0.00246  -0.00000   0.00000   0.00124
  59       19F-3       -0.00000  -0.00000  -0.00177   0.00374  -0.00000
  60       20G 0       -0.00000   0.00000  -0.00013   0.00009  -0.00000
  61       20G+1        0.00000  -0.00000   0.00001  -0.00004  -0.00000
  62       20G-1        0.00015  -0.00007  -0.00000  -0.00000   0.00001
  63       20G+2       -0.00000   0.00000  -0.00017  -0.00025   0.00000
  64       20G-2        0.00003   0.00012   0.00000   0.00000   0.00034
  65       20G+3       -0.00000   0.00000   0.00002   0.00003  -0.00000
  66       20G-3       -0.00009   0.00003  -0.00000  -0.00000  -0.00005
  67       20G+4        0.00000  -0.00000   0.00008  -0.00035  -0.00000
  68       20G-4       -0.00004  -0.00012  -0.00000   0.00000  -0.00022
  69 2   O  1S         -0.00135  -0.00272   0.00221  -0.13828  -0.14893
  70        2S          0.00245   0.00515  -0.00437   0.31422   0.33858
  71        3S          0.00043   0.00087  -0.00082   0.09557   0.10323
  72        4S          0.00307   0.00802  -0.00562   0.19178   0.20643
  73        5PX         0.00098   0.00197  -0.00206  -0.02482  -0.02827
  74        5PY        -0.00084  -0.00168   0.00094   0.01412   0.01587
  75        5PZ        -0.00037   0.00038  -0.00015   0.01012   0.01090
  76        6PX         0.00165   0.00302  -0.00279  -0.02714  -0.03129
  77        6PY        -0.00146  -0.00272   0.00137   0.01428   0.01653
  78        6PZ        -0.00060   0.00036  -0.00019   0.01215   0.01299
  79        7PX        -0.00011  -0.00049   0.00040   0.00525   0.00332
  80        7PY        -0.00108  -0.00079  -0.00021  -0.00386  -0.00616
  81        7PZ        -0.00155  -0.00011  -0.00003   0.00350   0.00187
  82        8D 0       -0.00003  -0.00010   0.00013   0.00019   0.00019
  83        8D+1        0.00002   0.00000  -0.00001   0.00058   0.00063
  84        8D-1        0.00002   0.00000   0.00002   0.00129   0.00143
  85        8D+2        0.00001   0.00006  -0.00007   0.00074   0.00091
  86        8D-2       -0.00007  -0.00016   0.00024  -0.00069  -0.00080
  87        9D 0       -0.00107  -0.00151   0.00092  -0.00140  -0.00115
  88        9D+1       -0.00074   0.00073  -0.00029   0.00221   0.00244
  89        9D-1        0.00023  -0.00047  -0.00003   0.00348   0.00358
  90        9D+2        0.00042   0.00053  -0.00147   0.00373   0.00343
  91        9D-2       -0.00149  -0.00273   0.00121  -0.00490  -0.00470
  92       10F 0        0.00012  -0.00014  -0.00002   0.00038   0.00040
  93       10F+1       -0.00018  -0.00029   0.00023  -0.00042  -0.00042
  94       10F-1        0.00012   0.00026  -0.00011   0.00095   0.00101
  95       10F+2       -0.00005   0.00000   0.00000  -0.00147  -0.00159
  96       10F-2        0.00015  -0.00015   0.00002  -0.00050  -0.00056
  97       10F+3       -0.00014  -0.00037  -0.00011  -0.00049  -0.00054
  98       10F-3       -0.00022  -0.00040   0.00038  -0.00009  -0.00011
  99 3   H  1S         -0.00009   0.00039  -0.00038   0.05805   0.06273
 100        2S          0.00102  -0.00080   0.00103   0.04830   0.05517
 101        3S          0.00051   0.00032  -0.00011   0.00236   0.00497
 102        4PX         0.00009   0.00011  -0.00007   0.00145   0.00147
 103        4PY        -0.00003  -0.00013   0.00006  -0.00599  -0.00643
 104        4PZ         0.00005  -0.00002   0.00004  -0.00716  -0.00776
 105        5PX         0.00060   0.00033  -0.00017   0.00057   0.00102
 106        5PY        -0.00034   0.00005  -0.00034  -0.00571  -0.00694
 107        5PZ        -0.00006   0.00052  -0.00040  -0.00727  -0.00845
 108        6D 0       -0.00012  -0.00017  -0.00001   0.00076   0.00085
 109        6D+1       -0.00019  -0.00016   0.00008  -0.00045  -0.00041
 110        6D-1        0.00002  -0.00001   0.00010   0.00192   0.00211
 111        6D+2       -0.00001  -0.00005   0.00001  -0.00069  -0.00081
 112        6D-2       -0.00018  -0.00001  -0.00003  -0.00049  -0.00053
 113 4   O  1S         -0.00265   0.00137  -0.00213  -0.05327   0.00015
 114        2S          0.00477  -0.00262   0.00396   0.12096  -0.00084
 115        3S          0.00080  -0.00047   0.00061   0.03677  -0.00018
 116        4S          0.00898  -0.00371   0.00855   0.06916   0.00279
 117        5PX        -0.00029  -0.00040  -0.00008   0.00068  -0.00034
 118        5PY         0.00164  -0.00087   0.00080  -0.00993   0.00004
 119        5PZ         0.00191  -0.00104   0.00188  -0.00368   0.00005
 120        6PX        -0.00067  -0.00080  -0.00016   0.00063  -0.00056
 121        6PY         0.00232  -0.00116   0.00112  -0.01070  -0.00009
 122        6PZ         0.00303  -0.00161   0.00286  -0.00248  -0.00015
 123        7PX        -0.00121  -0.00126  -0.00008  -0.00099  -0.00558
 124        7PY         0.00109  -0.00026  -0.00072   0.00190   0.00044
 125        7PZ         0.00145  -0.00060   0.00124   0.00270   0.00011
 126        8D 0        0.00006  -0.00006   0.00009  -0.00037   0.00000
 127        8D+1       -0.00004  -0.00006  -0.00001   0.00014   0.00003
 128        8D-1        0.00016  -0.00012   0.00007   0.00036  -0.00003
 129        8D+2       -0.00006   0.00006  -0.00001   0.00027   0.00000
 130        8D-2       -0.00003  -0.00003  -0.00000  -0.00006  -0.00001
 131        9D 0        0.00112  -0.00046   0.00170  -0.00039   0.00003
 132        9D+1       -0.00027  -0.00039  -0.00008   0.00026   0.00004
 133        9D-1        0.00283  -0.00121   0.00207   0.00255   0.00022
 134        9D+2       -0.00107   0.00041  -0.00033  -0.00002  -0.00001
 135        9D-2       -0.00018  -0.00016  -0.00009  -0.00017   0.00024
 136       10F 0        0.00004  -0.00002   0.00036   0.00037   0.00002
 137       10F+1       -0.00011  -0.00010  -0.00008  -0.00016   0.00005
 138       10F-1        0.00054  -0.00027   0.00053   0.00019   0.00000
 139       10F+2       -0.00042   0.00021  -0.00020  -0.00018  -0.00002
 140       10F-2       -0.00016  -0.00015  -0.00006  -0.00011  -0.00003
 141       10F+3        0.00007   0.00005   0.00002  -0.00000   0.00002
 142       10F-3       -0.00014   0.00009  -0.00004  -0.00051  -0.00001
 143 5   H  1S          0.00017  -0.00030   0.00035   0.02179  -0.00040
 144        2S         -0.00060   0.00154  -0.00212   0.02038   0.00275
 145        3S          0.00050   0.00006   0.00008   0.00110   0.00192
 146        4PX         0.00008  -0.00003   0.00005  -0.00303   0.00003
 147        4PY         0.00008  -0.00003   0.00004   0.00179  -0.00000
 148        4PZ         0.00014  -0.00006   0.00014   0.00087  -0.00004
 149        5PX         0.00054  -0.00062   0.00092  -0.00365  -0.00048
 150        5PY        -0.00003   0.00033  -0.00036   0.00186   0.00040
 151        5PZ         0.00014   0.00021  -0.00004   0.00114   0.00056
[...]
 283         V                 7.852333         11.646396
 284         V                 7.858492         11.617491
 285         V                 7.862665         11.689008
 286         V                 7.877483         11.608506
 287         V                 7.998852         12.001988
 288         V                 8.009944         12.008788
 289         V                 8.011947         12.040089
 290         V                 8.371098         15.576407
 291         V                 8.402882         15.560617
 292         V                 8.418121         15.576158
 293         V                 8.579899         15.515890
 294         V                 8.622730         15.549182
 295         V                 8.633424         15.491012
 296         V                 8.912214         15.776800
 297         V                11.975637         33.478561
 298         V                12.109883         33.818177
 299         V                12.209478         33.911625
 300         V                12.726713         35.284298
 Total kinetic energy from orbitals= 1.566360465256D+03
 Calling FoFJK, ICntrl=      2527 FMM=F ISym2X=0 I1Cent= 4 IOpClX= 0 NMat=1 NMatS=1 NMatT=0.
 ***** Axes restored to original set *****
 -------------------------------------------------------------------
 Center     Atomic                   Forces (Hartrees/Bohr)
 Number     Number              X              Y              Z
 -------------------------------------------------------------------
      1       26          -0.000000000   -0.000000000   -0.000000000
      2        8          -0.000000000   -0.000000000   -0.000000000
      3        1          -0.000001143    0.000003105    0.000013047
      4        8          -0.000000000   -0.000000000   -0.000000000
      5        1           0.000009734   -0.000005724   -0.000001800
      6        8          -0.000000000   -0.000000000   -0.000000000
      7        1          -0.000013346    0.000010301    0.000010520
      8        8          -0.000000000   -0.000000000   -0.000000000
      9        1          -0.000007485   -0.000002731    0.000020145
     10        1           0.000002181    0.000000414   -0.000001808
     11        1           0.000001256    0.000007925    0.000016910
     12        1          -0.000000158   -0.000000466   -0.000017027
     13        1          -0.000005749    0.000004478   -0.000001971
 -------------------------------------------------------------------
 Cartesian Forces:  Max     0.000020145 RMS     0.000006946

 GradGradGradGradGradGradGradGradGradGradGradGradGradGradGradGradGradGrad
 Berny optimization.
 FormGI is forming the generalized inverse of G from B-inverse, IUseBI=4.
 Internal  Forces:  Max     0.000038157 RMS     0.000010289
 Search for a local minimum.
 Step number   1 out of a maximum of   69
 All quantities printed in internal units (Hartrees-Bohrs-Radians)
 Mixed Optimization -- En-DIIS/RFO-DIIS
 Second derivative matrix not updated -- first step.
 ITU=  0
     Eigenvalues ---    0.04472   0.04472   0.04472   0.04472   0.04563
     Eigenvalues ---    0.04564   0.04837   0.04838   0.16000   0.16000
     Eigenvalues ---    0.16000   0.16000   0.16000   0.16000   0.16000
     Eigenvalues ---    0.16000   0.50012   0.50015   0.50309   0.50310
     Eigenvalues ---    0.51070   0.51070   0.51148   0.511491000.00000
     Eigenvalues --- 1000.000001000.000001000.000001000.000001000.00000
     Eigenvalues --- 1000.000001000.000001000.000001000.000001000.00000
     Eigenvalues --- 1000.000001000.000001000.000001000.000001000.00000
     Eigenvalues --- 1000.000001000.000001000.000001000.000001000.00000
     Eigenvalues --- 1000.000001000.000001000.000001000.000001000.00000
     Eigenvalues --- 1000.000001000.000001000.000001000.000001000.00000
     Eigenvalues --- 1000.000001000.000001000.000001000.00000
 RFO step:  Lambda=-2.50446730D-08 EMin= 4.47246748D-02
 Linear search not attempted -- first point.
 Iteration  1 RMS(Cart)=  0.00008739 RMS(Int)=  0.00000001
 Iteration  2 RMS(Cart)=  0.00000001 RMS(Int)=  0.00000000
 Variable       Old X    -DE/DX   Delta X   Delta X   Delta X     New X
                                 (Linear)    (Quad)   (Total)
    X1       -0.00002  -0.00000   0.00000   0.00000   0.00000  -0.00002
    Y1        0.02041  -0.00000   0.00000   0.00000  -0.00000   0.02041
    Z1        0.00006  -0.00000   0.00000   0.00000   0.00000   0.00006
    X2        2.80445  -0.00001   0.00000   0.00000  -0.00000   2.80445
    Y2        2.00651   0.00001   0.00000   0.00000  -0.00000   2.00651
    Z2        0.13831   0.00001   0.00000   0.00000   0.00000   0.13831
    X4       -0.13688   0.00002   0.00000   0.00000   0.00000  -0.13688
    Y4       -1.96676  -0.00001   0.00000   0.00000   0.00000  -1.96676
    Z4        2.80384  -0.00002   0.00000   0.00000   0.00000   2.80384
    X6       -2.80519  -0.00001   0.00000   0.00000   0.00000  -2.80519
    Y6        2.00566   0.00002   0.00000   0.00000  -0.00000   2.00566
    Z6       -0.13612   0.00001   0.00000   0.00000   0.00000  -0.13612
    X8        0.13755  -0.00001   0.00000   0.00000  -0.00000   0.13755
    Y8       -1.96379   0.00000   0.00000   0.00000   0.00000  -1.96379
    Z8       -2.80580   0.00004   0.00000   0.00000   0.00000  -2.80580
    R1        1.86255  -0.00001   0.00000  -0.00002  -0.00002   1.86253
    R2        1.86553  -0.00001   0.00000  -0.00001  -0.00001   1.86552
    R3        1.85424  -0.00001   0.00000  -0.00001  -0.00001   1.85423
    R4        1.85501  -0.00001   0.00000  -0.00001  -0.00001   1.85499
    R5        1.86550   0.00001   0.00000   0.00001   0.00001   1.86551
    R6        1.86253  -0.00000   0.00000  -0.00000  -0.00000   1.86253
    R7        1.85424  -0.00001   0.00000  -0.00002  -0.00002   1.85422
    R8        1.85501  -0.00001   0.00000  -0.00002  -0.00002   1.85499
    A1        2.05951   0.00001   0.00000   0.00004   0.00004   2.05956
    A2        2.38595   0.00000   0.00000   0.00001   0.00001   2.38596
    A3        1.80922  -0.00001   0.00000  -0.00003  -0.00003   1.80919
    A4        2.11146   0.00001   0.00000   0.00005   0.00005   2.11151
    A5        2.22170  -0.00002   0.00000  -0.00014  -0.00014   2.22156
    A6        1.85099   0.00000   0.00000  -0.00000  -0.00000   1.85099
    A7        2.38547   0.00002   0.00000   0.00014   0.00014   2.38561
    A8        2.06016  -0.00001   0.00000  -0.00007  -0.00007   2.06009
    A9        1.80927  -0.00001   0.00000  -0.00007  -0.00007   1.80921
   A10        2.11184  -0.00001   0.00000  -0.00008  -0.00008   2.11176
   A11        2.22157  -0.00001   0.00000  -0.00010  -0.00010   2.22146
   A12        1.85096   0.00001   0.00000   0.00006   0.00006   1.85103
    D1        3.12850   0.00000   0.00000   0.00011   0.00011   3.12861
    D2        0.29003  -0.00001   0.00000  -0.00004  -0.00004   0.28999
    D3       -1.06029   0.00000   0.00000   0.00011   0.00011  -1.06018
    D4        2.38442  -0.00000   0.00000  -0.00004  -0.00004   2.38438
    D5        1.03410   0.00001   0.00000   0.00011   0.00011   1.03422
    D6       -1.80437   0.00000   0.00000  -0.00004  -0.00004  -1.80441
    D7        2.93399   0.00000   0.00000   0.00010   0.00010   2.93409
    D8       -0.73788  -0.00001   0.00000  -0.00011  -0.00011  -0.73799
    D9        0.83959   0.00001   0.00000   0.00010   0.00010   0.83970
   D10       -2.83227  -0.00000   0.00000  -0.00011  -0.00011  -2.83238
   D11       -1.25480   0.00000   0.00000   0.00010   0.00010  -1.25470
   D12        1.35652  -0.00001   0.00000  -0.00011  -0.00011   1.35641
   D13        2.38220   0.00001   0.00000   0.00006   0.00006   2.38226
   D14       -1.06122   0.00001   0.00000   0.00004   0.00004  -1.06118
   D15       -1.80659   0.00000   0.00000   0.00006   0.00006  -1.80653
   D16        1.03317   0.00000   0.00000   0.00004   0.00004   1.03322
   D17        0.28781  -0.00000   0.00000   0.00006   0.00006   0.28787
   D18        3.12757  -0.00000   0.00000   0.00004   0.00004   3.12761
   D19        0.83713   0.00001   0.00000   0.00021   0.00021   0.83734
   D20       -2.83417  -0.00001   0.00000  -0.00007  -0.00007  -2.83423
   D21       -1.25727   0.00001   0.00000   0.00021   0.00021  -1.25706
   D22        1.35462  -0.00000   0.00000  -0.00007  -0.00007   1.35456
   D23        2.93152   0.00001   0.00000   0.00021   0.00021   2.93173
   D24       -0.73977  -0.00000   0.00000  -0.00007  -0.00007  -0.73984
         Item               Value     Threshold  Converged?
 Maximum Force            0.000022     0.000450     YES
 RMS     Force            0.000008     0.000300     YES
 Maximum Displacement     0.000304     0.001800     YES
 RMS     Displacement     0.000087     0.001200     YES
 Predicted change in Energy=-1.252211D-08
 Optimization completed.
    -- Stationary point found.
                           ----------------------------
                           !   Optimized Parameters   !
                           ! (Angstroms and Degrees)  !
 --------------------------                            --------------------------
 ! Name  Definition              Value          Derivative Info.                !
 --------------------------------------------------------------------------------
 ! X1    R(1,-1)                 0.0            -DE/DX =    0.0                 !
 ! Y1    R(1,-2)                 0.0108         -DE/DX =    0.0                 !
 ! Z1    R(1,-3)                 0.0            -DE/DX =    0.0                 !
 ! X2    R(2,-1)                 1.4841         -DE/DX =    0.0                 !
 ! Y2    R(2,-2)                 1.0618         -DE/DX =    0.0                 !
 ! Z2    R(2,-3)                 0.0732         -DE/DX =    0.0                 !
 ! X4    R(4,-1)                -0.0724         -DE/DX =    0.0                 !
 ! Y4    R(4,-2)                -1.0408         -DE/DX =    0.0                 !
 ! Z4    R(4,-3)                 1.4837         -DE/DX =    0.0                 !
 ! X6    R(6,-1)                -1.4844         -DE/DX =    0.0                 !
 ! Y6    R(6,-2)                 1.0614         -DE/DX =    0.0                 !
 ! Z6    R(6,-3)                -0.072          -DE/DX =    0.0                 !
 ! X8    R(8,-1)                 0.0728         -DE/DX =    0.0                 !
 ! Y8    R(8,-2)                -1.0392         -DE/DX =    0.0                 !
 ! Z8    R(8,-3)                -1.4848         -DE/DX =    0.0                 !
 ! R1    R(2,3)                  0.9856         -DE/DX =    0.0                 !
 ! R2    R(2,13)                 0.9872         -DE/DX =    0.0                 !
 ! R3    R(4,5)                  0.9812         -DE/DX =    0.0                 !
 ! R4    R(4,12)                 0.9816         -DE/DX =    0.0                 !
 ! R5    R(6,7)                  0.9872         -DE/DX =    0.0                 !
 ! R6    R(6,10)                 0.9856         -DE/DX =    0.0                 !
 ! R7    R(8,9)                  0.9812         -DE/DX =    0.0                 !
 ! R8    R(8,11)                 0.9816         -DE/DX =    0.0                 !
 ! A1    A(1,2,3)              118.0013         -DE/DX =    0.0                 !
 ! A2    A(1,2,13)             136.7047         -DE/DX =    0.0                 !
 ! A3    A(3,2,13)             103.6604         -DE/DX =    0.0                 !
 ! A4    A(1,4,5)              120.9777         -DE/DX =    0.0                 !
 ! A5    A(1,4,12)             127.2938         -DE/DX =    0.0                 !
 ! A6    A(5,4,12)             106.0539         -DE/DX =    0.0                 !
 ! A7    A(1,6,7)              136.6776         -DE/DX =    0.0                 !
 ! A8    A(1,6,10)             118.0387         -DE/DX =    0.0                 !
 ! A9    A(7,6,10)             103.6637         -DE/DX =    0.0                 !
 ! A10   A(1,8,9)              120.9995         -DE/DX =    0.0                 !
 ! A11   A(1,8,11)             127.2864         -DE/DX =    0.0                 !
 ! A12   A(9,8,11)             106.0524         -DE/DX =    0.0                 !
 ! D1    D(4,1,2,3)            179.2497         -DE/DX =    0.0                 !
 ! D2    D(4,1,2,13)            16.6175         -DE/DX =    0.0                 !
 ! D3    D(6,1,2,3)            -60.7502         -DE/DX =    0.0                 !
 ! D4    D(6,1,2,13)           136.6175         -DE/DX =    0.0                 !
 ! D5    D(8,1,2,3)             59.2498         -DE/DX =    0.0                 !
 ! D6    D(8,1,2,13)          -103.3825         -DE/DX =    0.0                 !
 ! D7    D(2,1,4,5)            168.1052         -DE/DX =    0.0                 !
 ! D8    D(2,1,4,12)           -42.2772         -DE/DX =    0.0                 !
 ! D9    D(6,1,4,5)             48.1052         -DE/DX =    0.0                 !
 ! D10   D(6,1,4,12)          -162.2771         -DE/DX =    0.0                 !
 ! D11   D(8,1,4,5)            -71.8948         -DE/DX =    0.0                 !
 ! D12   D(8,1,4,12)            77.7228         -DE/DX =    0.0                 !
 ! D13   D(2,1,6,7)            136.4903         -DE/DX =    0.0                 !
 ! D14   D(2,1,6,10)           -60.8035         -DE/DX =    0.0                 !
 ! D15   D(4,1,6,7)           -103.5098         -DE/DX =    0.0                 !
 ! D16   D(4,1,6,10)            59.1964         -DE/DX =    0.0                 !
 ! D17   D(8,1,6,7)             16.4903         -DE/DX =    0.0                 !
 ! D18   D(8,1,6,10)           179.1965         -DE/DX =    0.0                 !
 ! D19   D(2,1,8,9)             47.9638         -DE/DX =    0.0                 !
 ! D20   D(2,1,8,11)          -162.3857         -DE/DX =    0.0                 !
 ! D21   D(4,1,8,9)            -72.0361         -DE/DX =    0.0                 !
 ! D22   D(4,1,8,11)            77.6143         -DE/DX =    0.0                 !
 ! D23   D(6,1,8,9)            167.9638         -DE/DX =    0.0                 !
 ! D24   D(6,1,8,11)           -42.3858         -DE/DX =    0.0                 !
 --------------------------------------------------------------------------------
 GradGradGradGradGradGradGradGradGradGradGradGradGradGradGradGradGradGrad

                          Input orientation:                          
 ---------------------------------------------------------------------
 Center     Atomic      Atomic             Coordinates (Angstroms)
 Number     Number       Type             X           Y           Z
 ---------------------------------------------------------------------
      1         26           0       -0.000011    0.010799    0.000031
      2          8           0        1.484052    1.061801    0.073193
      3          1           0        1.653215    1.676573   -0.678396
      4          8           0       -0.072436   -1.040767    1.483731
      5          1           0       -0.883779   -1.546071    1.705505
      6          8           0       -1.484445    1.061352   -0.072033
      7          1           0       -2.330618    1.075027   -0.580290
      8          8           0        0.072788   -1.039191   -1.484766
      9          1           0        0.884840   -1.542500   -1.708479
     10          1           0       -1.654785    1.674903    0.680275
     11          1           0       -0.670041   -1.519211   -1.910656
     12          1           0        0.670757   -1.519833    1.910056
     13          1           0        2.331015    1.074788    0.580183
 ---------------------------------------------------------------------
                    Distance matrix (angstroms):
                    1          2          3          4          5
     1  Fe   0.000000
     2  O    1.820000   0.000000
     3  H    2.442994   0.985619   0.000000
     4  O    1.820000   2.972047   3.877705   0.000000
     5  H    2.472556   3.882276   4.743918   0.981220   0.000000
     6  O    1.820000   2.972047   3.254395   2.972048   3.212334
     7  H    2.626992   3.870262   4.030188   3.719698   3.766743
     8  O    1.820000   2.972048   3.243972   2.972048   3.368943
     9  H    2.472793   3.211821   3.466108   3.370210   3.844907
    10  H    2.443411   3.255264   3.576151   3.244108   3.467019
    11  H    2.537832   3.903510   4.138721   3.479641   3.622572
    12  H    2.537904   3.271139   4.228749   0.981628   1.568156
    13  H    2.627228   0.987195   1.550993   3.326943   4.297691
                    6          7          8          9         10
     6  O    0.000000
     7  H    0.987179   0.000000
     8  O    2.972048   3.326312   0.000000
     9  H    3.882204   4.296909   0.981222   0.000000
    10  H    0.985611   1.551008   3.877914   4.744210   0.000000
    11  H    3.271558   3.355214   0.981629   1.568143   4.229067
    12  H    3.903343   4.684376   3.480432   3.624933   4.138460
    13  H    3.870827   4.803907   3.719209   3.765580   4.031967
                   11         12         13
    11  H    0.000000
    12  H    4.049145   0.000000
    13  H    4.683956   3.355157   0.000000
 Stoichiometry    FeH8O4(2+)
 Framework group  C1[X(FeH8O4)]
 Deg. of freedom    33
 Full point group                 C1      NOp   1
 Largest Abelian subgroup         C1      NOp   1
 Largest concise Abelian subgroup C1      NOp   1
                         Standard orientation:                         
 ---------------------------------------------------------------------
 Center     Atomic      Atomic             Coordinates (Angstroms)
 Number     Number       Type             X           Y           Z
 ---------------------------------------------------------------------
      1         26           0        0.000011    0.010799   -0.000031
      2          8           0       -1.484052    1.061801   -0.073193
      3          1           0       -1.653215    1.676573    0.678396
      4          8           0        0.072436   -1.040767   -1.483731
      5          1           0        0.883779   -1.546071   -1.705505
      6          8           0        1.484445    1.061352    0.072033
      7          1           0        2.330618    1.075027    0.580290
      8          8           0       -0.072788   -1.039191    1.484766
      9          1           0       -0.884840   -1.542500    1.708479
     10          1           0        1.654785    1.674903   -0.680275
     11          1           0        0.670040   -1.519211    1.910656
     12          1           0       -0.670757   -1.519833   -1.910056
     13          1           0       -2.331015    1.074788   -0.580183
 ---------------------------------------------------------------------
 Rotational constants (GHZ):      2.9114558      2.8867401      2.8441353
 1\1\GINC-HECTOR-MACBOOKAIR\FOpt\RPBEPBE\CC-pVTZ/def2TZV\Fe1H8O4(2+)\HE
 CTOR\08-Aug-2024\0\\# opt pbepbe/cc-pvtz/def2tzv pop=full geom=connect
 ivity output=wfx\\Fe2_tetraedrico_cc-pvtz-def2-tzv_1\\2,1\Fe,-0.000010
 5,0.01079864,0.00003105\O,1.48405231,1.06180076,0.07319252\H,1.6532152
 9,1.67657274,-0.67839563\O,-0.07243633,-1.04076699,1.48373073\H,-0.883
 77924,-1.54607066,1.70550515\O,-1.48444488,1.06135179,-0.07203268\H,-2
 .33061825,1.0750272,-0.58028998\O,0.07278751,-1.03919062,-1.48476642\H
 ,0.88483993,-1.54250018,-1.70847878\H,-1.65478518,1.67490328,0.6802753
 \H,-0.67004054,-1.51921073,-1.91065581\H,0.67075707,-1.51983347,1.9100
 5595\H,2.33101509,1.07478761,0.5801834\\Version=EM64L-G09RevE.01\State
 =1-A\HF=-1569.3271385\RMSD=9.382e-09\RMSF=6.946e-06\Dipole=0.000318,-0
 .2716466,-0.000997\Quadrupole=3.1379759,0.0961742,-3.2341501,0.0004484
 ,0.4658772,-0.0000115\PG=C01 [X(Fe1H8O4)]\\@

 Writing a WFNX file to "Fe2_tetraedrico_cc-pvtz-def2-tzv_1.wfx"


 ONLY A FOOL KNOWS EVERYTHING.

               -- THE CHEMIST ANALYST, SEPTEMBER 1946
 Job cpu time:       0 days  0 hours  2 minutes 36.7 seconds.
 File lengths (MBytes):  RWF=     49 Int=      0 D2E=      0 Chk=      7 Scr=      1
 Normal termination of Gaussian 09 at Thu Aug  8 14:42:17 2024.
