 Entering Gaussian System, Link 0=g09
 Input=Ni23_32.com
 Output=Ni23_32.log
 Initial command:
 /opt/SC/aplicaciones/g09-D.01/l1.exe "/tmpu/fercor_g/daram_a/Gau-54617.inp" -scrdir="/tmpu/fercor_g/daram_a/"
 Entering Link 1 = /opt/SC/aplicaciones/g09-D.01/l1.exe PID=     54618.
  
 Copyright (c) 1988,1990,1992,1993,1995,1998,2003,2009,2013,
            Gaussian, Inc.  All Rights Reserved.
  
 This is part of the Gaussian(R) 09 program.  It is based on
 the Gaussian(R) 03 system (copyright 2003, Gaussian, Inc.),
 the Gaussian(R) 98 system (copyright 1998, Gaussian, Inc.),
 the Gaussian(R) 94 system (copyright 1995, Gaussian, Inc.),
 the Gaussian 92(TM) system (copyright 1992, Gaussian, Inc.),
 the Gaussian 90(TM) system (copyright 1990, Gaussian, Inc.),
 the Gaussian 88(TM) system (copyright 1988, Gaussian, Inc.),
 the Gaussian 86(TM) system (copyright 1986, Carnegie Mellon
 University), and the Gaussian 82(TM) system (copyright 1983,
 Carnegie Mellon University). Gaussian is a federally registered
 trademark of Gaussian, Inc.
  
 This software contains proprietary and confidential information,
 including trade secrets, belonging to Gaussian, Inc.
  
 This software is provided under written license and may be
 used, copied, transmitted, or stored only in accord with that
 written license.
  
 The following legend is applicable only to US Government
 contracts under FAR:
  
                    RESTRICTED RIGHTS LEGEND
  
 Use, reproduction and disclosure by the US Government is
 subject to restrictions as set forth in subparagraphs (a)
 and (c) of the Commercial Computer Software - Restricted
 Rights clause in FAR 52.227-19.
  
 Gaussian, Inc.
 340 Quinnipiac St., Bldg. 40, Wallingford CT 06492
  
  
 ---------------------------------------------------------------
 Warning -- This program may not be used in any manner that
 competes with the business of Gaussian, Inc. or will provide
 assistance to any competitor of Gaussian, Inc.  The licensee
 of this program is prohibited from giving any competitor of
 Gaussian, Inc. access to this program.  By using this program,
 the user acknowledges that Gaussian, Inc. is engaged in the
 business of creating and licensing software in the field of
 computational chemistry and represents and warrants to the
 licensee that it is not a competitor of Gaussian, Inc. and that
 it will not use this program in any manner prohibited above.
 ---------------------------------------------------------------
  

 Cite this work as:
 Gaussian 09, Revision D.01,
 M. J. Frisch, G. W. Trucks, H. B. Schlegel, G. E. Scuseria, 
 M. A. Robb, J. R. Cheeseman, G. Scalmani, V. Barone, B. Mennucci, 
 G. A. Petersson, H. Nakatsuji, M. Caricato, X. Li, H. P. Hratchian, 
 A. F. Izmaylov, J. Bloino, G. Zheng, J. L. Sonnenberg, M. Hada, 
 M. Ehara, K. Toyota, R. Fukuda, J. Hasegawa, M. Ishida, T. Nakajima, 
 Y. Honda, O. Kitao, H. Nakai, T. Vreven, J. A. Montgomery, Jr., 
 J. E. Peralta, F. Ogliaro, M. Bearpark, J. J. Heyd, E. Brothers, 
 K. N. Kudin, V. N. Staroverov, T. Keith, R. Kobayashi, J. Normand, 
 K. Raghavachari, A. Rendell, J. C. Burant, S. S. Iyengar, J. Tomasi, 
 M. Cossi, N. Rega, J. M. Millam, M. Klene, J. E. Knox, J. B. Cross, 
 V. Bakken, C. Adamo, J. Jaramillo, R. Gomperts, R. E. Stratmann, 
 O. Yazyev, A. J. Austin, R. Cammi, C. Pomelli, J. W. Ochterski, 
 R. L. Martin, K. Morokuma, V. G. Zakrzewski, G. A. Voth, 
 P. Salvador, J. J. Dannenberg, S. Dapprich, A. D. Daniels, 
 O. Farkas, J. B. Foresman, J. V. Ortiz, J. Cioslowski, 
 and D. J. Fox, Gaussian, Inc., Wallingford CT, 2013.
 
 ******************************************
 Gaussian 09:  ES64L-G09RevD.01 24-Apr-2013
                 1-Sep-2015 
 ******************************************
 %nprocshared=16
 Will use up to   16 processors via shared memory.
 %mem=32GB
 %chk=Ni23_32.chk
 ----------------------------------------------------------------------
 # opt=modredundant 6-311++g(2d,2p) geom=check m062x output=wfnx nosymm
  scf=(maxcycle=1000)
 ----------------------------------------------------------------------
 1/14=-1,18=120,19=15,26=3,29=2,38=1/1,3;
 2/9=110,12=2,15=1,40=1/2;
 3/5=4,6=6,7=1212,11=2,14=-4,16=1,25=1,30=1,71=1,74=-55/1,2,3;
 4//1;
 5/5=2,7=1000,38=5/2;
 6/7=2,8=2,9=2,10=2,28=1/1;
 7/30=1/1,2,3,16;
 1/14=-1,18=20,19=15,26=3/3(2);
 2/9=110,15=1/2;
 99/6=200/99;
 2/9=110,15=1/2;
 3/5=4,6=6,7=1212,11=2,14=-2,16=1,25=1,30=1,71=1,74=-55/1,2,3;
 4/5=5,16=3,69=1/1;
 5/5=2,7=1000,38=5/2;
 7/30=1/1,2,3,16;
 1/14=-1,18=20,19=15,26=3/3(-5);
 2/9=110,15=1/2;
 6/7=2,8=2,9=2,10=2,19=2,28=1/1;
 99/6=200,9=1/99;
 -------
 Ni23_32
 -------
 Structure from the checkpoint file:  "Ni23_32.chk"
 Charge =  2 Multiplicity = 3
 Redundant internal coordinates found in file.
 Ni,0,0.,0.,0.
 O,0,-3.1496515692,0.133852237,-0.5493436483
 H,0,-3.7668040213,-0.5628354004,-0.2878969131
 H,0,-3.6162075533,0.9649961779,-0.4041915839
 O,0,0.2992773723,0.9567716996,3.0389177354
 H,0,-0.3784835428,0.7878408626,3.7001486508
 H,0,1.1355423133,0.7351370457,3.4618291168
 O,0,-0.278995616,3.0970268103,0.7553716681
 H,0,0.0001211648,3.8682099258,0.2452006462
 H,0,0.0408421937,3.2133031964,1.6559534865
 O,0,3.1496515692,-0.133852237,0.5493436483
 H,0,3.7668040213,0.5628354004,0.2878969131
 H,0,3.6162075533,-0.9649961779,0.4041915839
 O,0,-0.2992773723,-0.9567716996,-3.0389177354
 H,0,0.3784835428,-0.7878408626,-3.7001486508
 H,0,-1.1355423133,-0.7351370457,-3.4618291168
 O,0,0.278995616,-3.0970268103,-0.7553716681
 H,0,-0.0001211648,-3.8682099258,-0.2452006462
 H,0,-0.0408421937,-3.2133031964,-1.6559534865
 Recover connectivity data from disk.
 The following ModRedundant input section has been read:
 B       1       8 F                                                           
 B       1      14 F                                                           
 B       1      11 F                                                           
 B       1       2 F                                                           
 B       1       5 F                                                           
 B       1      17 F                                                           
 

 GradGradGradGradGradGradGradGradGradGradGradGradGradGradGradGradGradGrad
 Berny optimization.
 Initialization pass.
                           ----------------------------
                           !    Initial Parameters    !
                           ! (Angstroms and Degrees)  !
 --------------------------                            --------------------------
 ! Name  Definition              Value          Derivative Info.                !
 --------------------------------------------------------------------------------
 ! R1    R(1,2)                  3.2            Frozen                          !
 ! R2    R(1,5)                  3.2            Frozen                          !
 ! R3    R(1,8)                  3.2            Frozen                          !
 ! R4    R(1,11)                 3.2            Frozen                          !
 ! R5    R(1,14)                 3.2            Frozen                          !
 ! R6    R(1,17)                 3.2            Frozen                          !
 ! R7    R(2,3)                  0.9667         estimate D2E/DX2                !
 ! R8    R(2,4)                  0.9641         estimate D2E/DX2                !
 ! R9    R(5,6)                  0.9618         estimate D2E/DX2                !
 ! R10   R(5,7)                  0.963          estimate D2E/DX2                !
 ! R11   R(8,9)                  0.9659         estimate D2E/DX2                !
 ! R12   R(8,10)                 0.9627         estimate D2E/DX2                !
 ! R13   R(11,12)                0.9667         estimate D2E/DX2                !
 ! R14   R(11,13)                0.9641         estimate D2E/DX2                !
 ! R15   R(14,15)                0.9618         estimate D2E/DX2                !
 ! R16   R(14,16)                0.963          estimate D2E/DX2                !
 ! R17   R(17,18)                0.9659         estimate D2E/DX2                !
 ! R18   R(17,19)                0.9627         estimate D2E/DX2                !
 ! A1    A(2,1,5)              104.0385         estimate D2E/DX2                !
 ! A2    A(2,1,8)               85.0795         estimate D2E/DX2                !
 ! A3    A(2,1,14)              75.9615         estimate D2E/DX2                !
 ! A4    A(2,1,17)              94.9205         estimate D2E/DX2                !
 ! A5    A(5,1,8)               59.643          estimate D2E/DX2                !
 ! A6    A(5,1,11)              75.9615         estimate D2E/DX2                !
 ! A7    A(5,1,17)             120.357          estimate D2E/DX2                !
 ! A8    A(8,1,11)              94.9205         estimate D2E/DX2                !
 ! A9    A(8,1,14)             120.357          estimate D2E/DX2                !
 ! A10   A(11,1,14)            104.0385         estimate D2E/DX2                !
 ! A11   A(11,1,17)             85.0795         estimate D2E/DX2                !
 ! A12   A(14,1,17)             59.643          estimate D2E/DX2                !
 ! A13   A(1,2,3)              123.4881         estimate D2E/DX2                !
 ! A14   A(1,2,4)              119.1118         estimate D2E/DX2                !
 ! A15   A(3,2,4)              105.7602         estimate D2E/DX2                !
 ! A16   A(1,5,6)              122.3065         estimate D2E/DX2                !
 ! A17   A(1,5,7)              115.4339         estimate D2E/DX2                !
 ! A18   A(6,5,7)              105.6402         estimate D2E/DX2                !
 ! A19   A(1,8,9)              128.5255         estimate D2E/DX2                !
 ! A20   A(1,8,10)             107.9833         estimate D2E/DX2                !
 ! A21   A(9,8,10)             107.5574         estimate D2E/DX2                !
 ! A22   A(1,11,12)            123.4881         estimate D2E/DX2                !
 ! A23   A(1,11,13)            119.1118         estimate D2E/DX2                !
 ! A24   A(12,11,13)           105.7602         estimate D2E/DX2                !
 ! A25   A(1,14,15)            122.3065         estimate D2E/DX2                !
 ! A26   A(1,14,16)            115.4339         estimate D2E/DX2                !
 ! A27   A(15,14,16)           105.6402         estimate D2E/DX2                !
 ! A28   A(1,17,18)            128.5255         estimate D2E/DX2                !
 ! A29   A(1,17,19)            107.9833         estimate D2E/DX2                !
 ! A30   A(18,17,19)           107.5574         estimate D2E/DX2                !
 ! A31   L(2,1,11,5,-1)        180.0            estimate D2E/DX2                !
 ! A32   L(5,1,14,2,-1)        180.0            estimate D2E/DX2                !
 ! A33   L(8,1,17,2,-1)        180.0            estimate D2E/DX2                !
 ! A34   L(2,1,11,5,-2)        180.0            estimate D2E/DX2                !
 ! A35   L(5,1,14,2,-2)        180.0            estimate D2E/DX2                !
 ! A36   L(8,1,17,2,-2)        180.0            estimate D2E/DX2                !
 ! D1    D(5,1,2,3)            -81.793          estimate D2E/DX2                !
 ! D2    D(5,1,2,4)             56.0389         estimate D2E/DX2                !
 ! D3    D(8,1,2,3)           -138.8093         estimate D2E/DX2                !
 ! D4    D(8,1,2,4)             -0.9775         estimate D2E/DX2                !
 ! D5    D(14,1,2,3)            98.207          estimate D2E/DX2                !
 ! D6    D(14,1,2,4)          -123.9611         estimate D2E/DX2                !
 ! D7    D(17,1,2,3)            41.1907         estimate D2E/DX2                !
 ! D8    D(17,1,2,4)           179.0225         estimate D2E/DX2                !
 ! D9    D(3,2,11,12)          180.0            estimate D2E/DX2                !
 ! D10   D(3,2,11,13)           42.1682         estimate D2E/DX2                !
 ! D11   D(4,2,11,12)          -42.1682         estimate D2E/DX2                !
 ! D12   D(4,2,11,13)          180.0            estimate D2E/DX2                !
 ! D13   D(2,1,5,6)             31.671          estimate D2E/DX2                !
 ! D14   D(2,1,5,7)            162.5085         estimate D2E/DX2                !
 ! D15   D(8,1,5,6)            107.2579         estimate D2E/DX2                !
 ! D16   D(8,1,5,7)           -121.9046         estimate D2E/DX2                !
 ! D17   D(11,1,5,6)          -148.329          estimate D2E/DX2                !
 ! D18   D(11,1,5,7)           -17.4915         estimate D2E/DX2                !
 ! D19   D(17,1,5,6)           -72.7421         estimate D2E/DX2                !
 ! D20   D(17,1,5,7)            58.0954         estimate D2E/DX2                !
 ! D21   D(6,5,14,15)          180.0            estimate D2E/DX2                !
 ! D22   D(6,5,14,16)           49.1625         estimate D2E/DX2                !
 ! D23   D(7,5,14,15)          -49.1625         estimate D2E/DX2                !
 ! D24   D(7,5,14,16)          180.0            estimate D2E/DX2                !
 ! D25   D(2,1,8,9)           -105.919          estimate D2E/DX2                !
 ! D26   D(2,1,8,10)           122.4885         estimate D2E/DX2                !
 ! D27   D(5,1,8,9)            144.6556         estimate D2E/DX2                !
 ! D28   D(5,1,8,10)            13.063          estimate D2E/DX2                !
 ! D29   D(11,1,8,9)            74.081          estimate D2E/DX2                !
 ! D30   D(11,1,8,10)          -57.5115         estimate D2E/DX2                !
 ! D31   D(14,1,8,9)           -35.3444         estimate D2E/DX2                !
 ! D32   D(14,1,8,10)         -166.937          estimate D2E/DX2                !
 ! D33   D(9,8,17,18)          180.0            estimate D2E/DX2                !
 ! D34   D(9,8,17,19)          -48.4074         estimate D2E/DX2                !
 ! D35   D(10,8,17,18)          48.4074         estimate D2E/DX2                !
 ! D36   D(10,8,17,19)         180.0            estimate D2E/DX2                !
 ! D37   D(5,1,11,12)          -98.207          estimate D2E/DX2                !
 ! D38   D(5,1,11,13)          123.9611         estimate D2E/DX2                !
 ! D39   D(8,1,11,12)          -41.1907         estimate D2E/DX2                !
 ! D40   D(8,1,11,13)         -179.0225         estimate D2E/DX2                !
 ! D41   D(14,1,11,12)          81.793          estimate D2E/DX2                !
 ! D42   D(14,1,11,13)         -56.0389         estimate D2E/DX2                !
 ! D43   D(17,1,11,12)         138.8093         estimate D2E/DX2                !
 ! D44   D(17,1,11,13)           0.9775         estimate D2E/DX2                !
 ! D45   D(2,1,14,15)          148.329          estimate D2E/DX2                !
 ! D46   D(2,1,14,16)           17.4915         estimate D2E/DX2                !
 ! D47   D(8,1,14,15)           72.7421         estimate D2E/DX2                !
 ! D48   D(8,1,14,16)          -58.0954         estimate D2E/DX2                !
 ! D49   D(11,1,14,15)         -31.671          estimate D2E/DX2                !
 ! D50   D(11,1,14,16)        -162.5085         estimate D2E/DX2                !
 ! D51   D(17,1,14,15)        -107.2579         estimate D2E/DX2                !
 ! D52   D(17,1,14,16)         121.9046         estimate D2E/DX2                !
 ! D53   D(2,1,17,18)          -74.081          estimate D2E/DX2                !
 ! D54   D(2,1,17,19)           57.5115         estimate D2E/DX2                !
 ! D55   D(5,1,17,18)           35.3444         estimate D2E/DX2                !
 ! D56   D(5,1,17,19)          166.937          estimate D2E/DX2                !
 ! D57   D(11,1,17,18)         105.919          estimate D2E/DX2                !
 ! D58   D(11,1,17,19)        -122.4885         estimate D2E/DX2                !
 ! D59   D(14,1,17,18)        -144.6556         estimate D2E/DX2                !
 ! D60   D(14,1,17,19)         -13.063          estimate D2E/DX2                !
 --------------------------------------------------------------------------------
 Trust Radius=3.00D-01 FncErr=1.00D-07 GrdErr=1.00D-06
 Number of steps in this run=    114 maximum allowed number of steps=    114.
 GradGradGradGradGradGradGradGradGradGradGradGradGradGradGradGradGradGrad

                          Input orientation:                          
 ---------------------------------------------------------------------
 Center     Atomic      Atomic             Coordinates (Angstroms)
 Number     Number       Type             X           Y           Z
 ---------------------------------------------------------------------
      1         28           0        0.000000    0.000000    0.000000
      2          8           0       -3.149652    0.133852   -0.549344
      3          1           0       -3.766804   -0.562835   -0.287897
      4          1           0       -3.616208    0.964996   -0.404192
      5          8           0        0.299277    0.956772    3.038918
      6          1           0       -0.378484    0.787841    3.700149
      7          1           0        1.135542    0.735137    3.461829
      8          8           0       -0.278996    3.097027    0.755372
      9          1           0        0.000121    3.868210    0.245201
     10          1           0        0.040842    3.213303    1.655953
     11          8           0        3.149652   -0.133852    0.549344
     12          1           0        3.766804    0.562835    0.287897
     13          1           0        3.616208   -0.964996    0.404192
     14          8           0       -0.299277   -0.956772   -3.038918
     15          1           0        0.378484   -0.787841   -3.700149
     16          1           0       -1.135542   -0.735137   -3.461829
     17          8           0        0.278996   -3.097027   -0.755372
     18          1           0       -0.000121   -3.868210   -0.245201
     19          1           0       -0.040842   -3.213303   -1.655953
 ---------------------------------------------------------------------
                    Distance matrix (angstroms):
                    1          2          3          4          5
     1  Ni   0.000000
     2  O    3.200000   0.000000
     3  H    3.819487   0.966750   0.000000
     4  H    3.764511   0.964129   1.539634   0.000000
     5  O    3.200000   5.044594   5.468996   5.214028   0.000000
     6  H    3.801979   5.115199   5.404586   5.230664   0.961834
     7  H    3.716738   5.900334   6.306994   6.130096   0.962972
     8  O    3.200000   4.327049   5.162152   4.126394   3.182715
     9  H    3.875974   4.949525   5.840212   4.682755   4.046087
    10  H    3.615130   4.952333   5.704029   4.761627   2.659194
    11  O    3.200000   6.400000   6.980140   6.920516   3.938537
    12  H    3.819487   6.980140   7.638974   7.426276   4.443764
    13  H    3.764511   6.920516   7.426276   7.529023   4.651559
    14  O    3.200000   3.938537   4.443764   4.651559   6.400000
    15  H    3.801979   4.819214   5.373779   5.467479   6.961678
    16  H    3.716738   3.646142   4.126387   4.288741   6.868841
    17  O    3.200000   4.715575   4.796786   5.638791   5.552506
    18  H    3.875974   5.101818   5.011509   6.038314   5.844272
    19  H    3.615130   4.700290   4.772772   5.639887   6.288642
                    6          7          8          9         10
     6  H    0.000000
     7  H    1.533574   0.000000
     8  O    3.743521   3.860616   0.000000
     9  H    4.644209   4.631633   0.965870   0.000000
    10  H    3.199599   3.255897   0.962738   1.555887   0.000000
    11  O    4.819214   3.646142   4.715575   5.101818   4.700290
    12  H    5.373779   4.126387   4.796786   5.011509   4.772772
    13  H    5.467479   4.288741   5.638791   6.038314   5.639887
    14  O    6.961678   6.868841   5.552506   5.844272   6.288642
    15  H    7.603958   7.361150   5.947784   6.114552   6.694101
    16  H    7.361150   7.433477   5.762286   6.018522   6.570065
    17  O    5.947784   5.762286   6.400000   7.042261   6.759547
    18  H    6.114552   6.018522   7.042261   7.751947   7.332387
    19  H    6.694101   6.570065   6.759547   7.332387   7.230261
                   11         12         13         14         15
    11  O    0.000000
    12  H    0.966750   0.000000
    13  H    0.964129   1.539634   0.000000
    14  O    5.044594   5.468996   5.214028   0.000000
    15  H    5.115199   5.404586   5.230664   0.961834   0.000000
    16  H    5.900334   6.306994   6.130096   0.962972   1.533574
    17  O    4.327049   5.162152   4.126394   3.182715   3.743521
    18  H    4.949525   5.840212   4.682755   4.046087   4.644209
    19  H    4.952333   5.704029   4.761627   2.659194   3.199599
                   16         17         18         19
    16  H    0.000000
    17  O    3.860616   0.000000
    18  H    4.631633   0.965870   0.000000
    19  H    3.255897   0.962738   1.555887   0.000000
 Symmetry turned off by external request.
 Stoichiometry    H12NiO6(2+,3)
 Framework group  CI[O(Ni),X(H12O6)]
 Deg. of freedom    24
 Full point group                 CI      NOp   2
 Rotational constants (GHZ):      0.8850160      0.6770452      0.5099079
 Standard basis: 6-311++G(2d,2p) (5D, 7F)
   347 basis functions,   500 primitive gaussians,   369 cartesian basis functions
    44 alpha electrons       42 beta electrons
       nuclear repulsion energy       490.7901373205 Hartrees.
 NAtoms=   19 NActive=   19 NUniq=   19 SFac= 1.00D+00 NAtFMM=   60 NAOKFM=F Big=F
 Integral buffers will be    131072 words long.
 Raffenetti 2 integral format.
 Two-electron integral symmetry is turned off.
 One-electron integrals computed using PRISM.
 NBasis=   347 RedAO= T EigKep=  1.36D-03  NBF=   347
 NBsUse=   347 1.00D-06 EigRej= -1.00D+00 NBFU=   347
 ExpMin= 1.39D-02 ExpMax= 2.85D+05 ExpMxC= 9.63D+03 IAcc=3 IRadAn=         5 AccDes= 0.00D+00
 Harris functional with IExCor= 1009 and IRadAn=       5 diagonalized for initial guess.
 HarFok:  IExCor= 1009 AccDes= 0.00D+00 IRadAn=         5 IDoV= 1 UseB2=F ITyADJ=14
 ICtDFT=  3500011 ScaDFX=  1.000000  1.000000  1.000000  1.000000
 FoFCou: FMM=F IPFlag=           0 FMFlag=      100000 FMFlg1=           0
         NFxFlg=           0 DoJE=T BraDBF=F KetDBF=T FulRan=T
         wScrn=  0.000000 ICntrl=     500 IOpCl=  0 I1Cent=   200000004 NGrid=           0
         NMat0=    1 NMatS0=      1 NMatT0=    0 NMatD0=    1 NMtDS0=    0 NMtDT0=    0
 Symmetry not used in FoFCou.
 Initial guess <Sx>= 0.0000 <Sy>= 0.0000 <Sz>= 1.0000 <S**2>= 2.0000 S= 1.0000
 Keep R1 and R2 ints in memory in canonical form, NReq=3672312742.
 Requested convergence on RMS density matrix=1.00D-08 within1000 cycles.
 Requested convergence on MAX density matrix=1.00D-06.
 Requested convergence on             energy=1.00D-06.
 No special actions if energy rises.
 SCF Done:  E(UM062X) =  -1966.06060319     A.U. after   66 cycles
            NFock= 66  Conv=0.61D-08     -V/T= 2.0018
 <Sx>= 0.0000 <Sy>= 0.0000 <Sz>= 1.0000 <S**2>= 2.0039 S= 1.0013
 <L.S>= 0.000000000000E+00
 Annihilation of the first spin contaminant:
 S**2 before annihilation     2.0039,   after     2.0000

 **********************************************************************

            Population analysis using the SCF density.

 **********************************************************************

 Alpha  occ. eigenvalues -- -302.42081 -37.02214 -32.46409 -32.46233 -32.45996
 Alpha  occ. eigenvalues --  -19.91516 -19.91516 -19.90956 -19.90956 -19.90436
 Alpha  occ. eigenvalues --  -19.90436  -4.90643  -3.49084  -3.48795  -3.48408
 Alpha  occ. eigenvalues --   -1.41761  -1.41761  -1.41026  -1.41026  -1.40423
 Alpha  occ. eigenvalues --   -1.40423  -1.08669  -1.08618  -1.05417  -1.05329
 Alpha  occ. eigenvalues --   -1.05196  -0.89207  -0.89205  -0.88563  -0.88561
 Alpha  occ. eigenvalues --   -0.88394  -0.88393  -0.77242  -0.76825  -0.76199
 Alpha  occ. eigenvalues --   -0.76108  -0.75158  -0.75146  -0.68879  -0.68762
 Alpha  occ. eigenvalues --   -0.68139  -0.68046  -0.67506  -0.67424
 Alpha virt. eigenvalues --   -0.49183  -0.31781  -0.30287  -0.29636  -0.23679
 Alpha virt. eigenvalues --   -0.20791  -0.20221  -0.19968  -0.19474  -0.19270
 Alpha virt. eigenvalues --   -0.18055  -0.17638  -0.17133  -0.15466  -0.15262
 Alpha virt. eigenvalues --   -0.14324  -0.12054  -0.11736  -0.10844  -0.09428
 Alpha virt. eigenvalues --   -0.08399  -0.08282  -0.07940  -0.07225  -0.07203
 Alpha virt. eigenvalues --   -0.06183  -0.05385  -0.05297  -0.03964  -0.03710
 Alpha virt. eigenvalues --   -0.02943  -0.02720  -0.02429  -0.01968  -0.01412
 Alpha virt. eigenvalues --   -0.01126  -0.00902  -0.00393   0.00218   0.00325
 Alpha virt. eigenvalues --    0.00584   0.01423   0.01467   0.01899   0.02560
 Alpha virt. eigenvalues --    0.02940   0.03778   0.04029   0.04468   0.05298
 Alpha virt. eigenvalues --    0.06080   0.06963   0.07771   0.08936   0.09050
 Alpha virt. eigenvalues --    0.11858   0.13273   0.13675   0.13929   0.14710
 Alpha virt. eigenvalues --    0.16258   0.19755   0.31213   0.31653   0.32057
 Alpha virt. eigenvalues --    0.32587   0.34073   0.34539   0.34803   0.35361
 Alpha virt. eigenvalues --    0.36663   0.36704   0.37043   0.37060   0.42478
 Alpha virt. eigenvalues --    0.43668   0.45319   0.45320   0.45651   0.45800
 Alpha virt. eigenvalues --    0.47596   0.48187   0.49897   0.50902   0.54188
 Alpha virt. eigenvalues --    0.58447   0.59018   0.59349   0.63082   0.64371
 Alpha virt. eigenvalues --    0.64475   0.65702   0.65821   0.67379   0.67570
 Alpha virt. eigenvalues --    0.67606   0.68155   0.69430   0.69978   0.70713
 Alpha virt. eigenvalues --    0.72464   0.73560   0.74162   0.74863   0.77746
 Alpha virt. eigenvalues --    0.77953   0.79324   0.79624   0.79808   0.81448
 Alpha virt. eigenvalues --    0.84704   0.84746   0.85295   0.87071   0.89363
 Alpha virt. eigenvalues --    0.89476   1.04080   1.05713   1.06231   1.07459
 Alpha virt. eigenvalues --    1.07674   1.10143   1.16758   1.16850   1.17136
 Alpha virt. eigenvalues --    1.19286   1.20534   1.20638   1.21462   1.23326
 Alpha virt. eigenvalues --    1.24409   1.24850   1.27835   1.28320   1.28392
 Alpha virt. eigenvalues --    1.31045   1.32665   1.37760   1.38467   1.43219
 Alpha virt. eigenvalues --    1.44865   1.45460   1.45805   1.45938   1.46560
 Alpha virt. eigenvalues --    1.47675   1.48727   1.50161   1.51357   1.53733
 Alpha virt. eigenvalues --    1.54210   1.54653   1.54746   1.55687   1.56115
 Alpha virt. eigenvalues --    1.56283   1.56289   1.56513   1.57939   1.59337
 Alpha virt. eigenvalues --    1.61114   1.69460   1.69761   1.70012   1.71993
 Alpha virt. eigenvalues --    1.74486   1.76417   1.93851   1.93907   1.95323
 Alpha virt. eigenvalues --    1.95579   1.97321   1.98961   2.00908   2.01063
 Alpha virt. eigenvalues --    2.03673   2.03878   2.06628   2.07466   2.25419
 Alpha virt. eigenvalues --    2.26802   2.27061   2.28338   2.29165   2.30037
 Alpha virt. eigenvalues --    2.63114   2.63312   2.63496   2.63805   2.64324
 Alpha virt. eigenvalues --    2.64592   2.84467   3.46192   3.46243   3.46420
 Alpha virt. eigenvalues --    3.46601   3.47750   3.47979   3.50757   3.51742
 Alpha virt. eigenvalues --    3.52019   3.52487   3.52812   3.54402   3.54634
 Alpha virt. eigenvalues --    3.55271   3.55699   3.56611   3.58122   3.60158
 Alpha virt. eigenvalues --    3.70160   3.71196   3.73045   3.73827   3.78045
 Alpha virt. eigenvalues --    3.79043   3.82781   3.83179   3.83584   3.84963
 Alpha virt. eigenvalues --    3.86146   3.86769   3.95891   3.96107   3.96779
 Alpha virt. eigenvalues --    3.96957   3.98127   3.98844   4.86102   4.86274
 Alpha virt. eigenvalues --    4.87090   4.88268   4.89650   4.90327   5.34008
 Alpha virt. eigenvalues --    5.35619   5.36717   5.38876   5.41371   5.41436
 Alpha virt. eigenvalues --    5.96623   5.96759   5.97061   5.97099   5.99605
 Alpha virt. eigenvalues --    5.99707   6.26645   6.27948   6.30001   6.32619
 Alpha virt. eigenvalues --    6.36972   6.56568   6.56956   6.57480   6.57512
 Alpha virt. eigenvalues --    6.58552   6.58794   6.59303   6.59423   6.59780
 Alpha virt. eigenvalues --    6.60303   6.60467   6.62301   6.67997   6.68102
 Alpha virt. eigenvalues --    6.68291   6.69262   6.69472   6.69627   6.71030
 Alpha virt. eigenvalues --    6.71338   6.71345   6.71960   6.72006   6.72541
 Alpha virt. eigenvalues --    6.72803   6.95995   6.96146   6.96447   6.97025
 Alpha virt. eigenvalues --    6.98225   6.98300   7.14691   7.14882   7.14889
 Alpha virt. eigenvalues --    7.15199   7.16246   7.16844   8.17131   8.21664
 Alpha virt. eigenvalues --    8.25364  29.16538  35.81513  35.84358  35.86732
 Alpha virt. eigenvalues --   49.72265  49.72550  49.72661  49.73621  49.74128
 Alpha virt. eigenvalues --   49.75026 161.69884 844.15721
  Beta  occ. eigenvalues -- -302.42198 -36.95814 -32.41024 -32.41005 -32.40991
  Beta  occ. eigenvalues --  -19.91479 -19.91479 -19.90919 -19.90919 -19.90392
  Beta  occ. eigenvalues --  -19.90392  -4.81038  -3.35900  -3.35765  -3.35660
  Beta  occ. eigenvalues --   -1.41650  -1.41649  -1.40916  -1.40916  -1.40289
  Beta  occ. eigenvalues --   -1.40288  -0.98481  -0.98424  -0.98324  -0.89166
  Beta  occ. eigenvalues --   -0.89163  -0.88521  -0.88518  -0.88346  -0.88343
  Beta  occ. eigenvalues --   -0.77128  -0.76709  -0.76082  -0.76048  -0.75096
  Beta  occ. eigenvalues --   -0.74996  -0.68704  -0.68457  -0.67993  -0.67785
  Beta  occ. eigenvalues --   -0.67324  -0.67070
  Beta virt. eigenvalues --   -0.51426  -0.51333  -0.48237  -0.31490  -0.30176
  Beta virt. eigenvalues --   -0.29618  -0.23496  -0.20714  -0.20158  -0.19900
  Beta virt. eigenvalues --   -0.19413  -0.19192  -0.17921  -0.17488  -0.16957
  Beta virt. eigenvalues --   -0.15444  -0.15239  -0.14297  -0.11912  -0.11654
  Beta virt. eigenvalues --   -0.10640  -0.09015  -0.07898  -0.07744  -0.07585
  Beta virt. eigenvalues --   -0.07000  -0.06905  -0.05850  -0.05187  -0.05163
  Beta virt. eigenvalues --   -0.03779  -0.03678  -0.02726  -0.02467  -0.02127
  Beta virt. eigenvalues --   -0.01779  -0.01405  -0.00994  -0.00811  -0.00214
  Beta virt. eigenvalues --    0.00302   0.00520   0.00645   0.01553   0.01693
  Beta virt. eigenvalues --    0.01939   0.02599   0.03030   0.03857   0.04408
  Beta virt. eigenvalues --    0.04513   0.05466   0.06245   0.06928   0.07910
  Beta virt. eigenvalues --    0.08937   0.09198   0.12315   0.13494   0.13756
  Beta virt. eigenvalues --    0.14343   0.15312   0.16332   0.20062   0.31274
  Beta virt. eigenvalues --    0.31705   0.32095   0.32620   0.34100   0.34586
  Beta virt. eigenvalues --    0.34848   0.35410   0.36700   0.36764   0.37074
  Beta virt. eigenvalues --    0.37087   0.42490   0.43700   0.45336   0.45342
  Beta virt. eigenvalues --    0.45659   0.45820   0.47617   0.48242   0.49907
  Beta virt. eigenvalues --    0.50934   0.54270   0.58449   0.59016   0.59401
  Beta virt. eigenvalues --    0.63175   0.64387   0.64791   0.65741   0.66075
  Beta virt. eigenvalues --    0.67443   0.67641   0.67686   0.68522   0.69541
  Beta virt. eigenvalues --    0.70032   0.70918   0.72504   0.73630   0.74210
  Beta virt. eigenvalues --    0.74979   0.77783   0.77960   0.79397   0.79751
  Beta virt. eigenvalues --    0.79853   0.81727   0.84829   0.85059   0.85381
  Beta virt. eigenvalues --    0.87856   0.89401   0.90034   1.04334   1.05933
  Beta virt. eigenvalues --    1.06293   1.07731   1.08107   1.10190   1.16880
  Beta virt. eigenvalues --    1.16928   1.17310   1.19319   1.20564   1.21142
  Beta virt. eigenvalues --    1.22871   1.24048   1.25986   1.26435   1.28017
  Beta virt. eigenvalues --    1.28597   1.29696   1.32031   1.32968   1.40402
  Beta virt. eigenvalues --    1.42429   1.45266   1.46586   1.47016   1.47327
  Beta virt. eigenvalues --    1.47597   1.47742   1.48706   1.50084   1.51106
  Beta virt. eigenvalues --    1.51753   1.53842   1.54468   1.55015   1.55073
  Beta virt. eigenvalues --    1.55910   1.56216   1.56321   1.56598   1.56693
  Beta virt. eigenvalues --    1.58333   1.59425   1.62309   1.69556   1.69881
  Beta virt. eigenvalues --    1.70054   1.72134   1.74585   1.76525   1.93897
  Beta virt. eigenvalues --    1.93921   1.95356   1.95638   1.97333   1.99001
  Beta virt. eigenvalues --    2.00959   2.01103   2.03729   2.03936   2.06687
  Beta virt. eigenvalues --    2.07553   2.25431   2.26821   2.27084   2.28367
  Beta virt. eigenvalues --    2.29183   2.30059   2.63132   2.63329   2.63516
  Beta virt. eigenvalues --    2.63824   2.64347   2.64621   2.90694   3.46203
  Beta virt. eigenvalues --    3.46254   3.46429   3.46612   3.47766   3.47990
  Beta virt. eigenvalues --    3.50773   3.51760   3.52039   3.52513   3.52828
  Beta virt. eigenvalues --    3.54425   3.54655   3.55299   3.55717   3.56639
  Beta virt. eigenvalues --    3.58137   3.60180   3.70172   3.71212   3.73055
  Beta virt. eigenvalues --    3.73846   3.78058   3.79069   3.82790   3.83187
  Beta virt. eigenvalues --    3.83592   3.84972   3.86152   3.86781   3.95901
  Beta virt. eigenvalues --    3.96113   3.96784   3.96963   3.98132   3.98849
  Beta virt. eigenvalues --    4.86229   4.86415   4.87237   4.88407   4.89839
  Beta virt. eigenvalues --    4.90509   5.34127   5.35707   5.36828   5.38965
  Beta virt. eigenvalues --    5.41447   5.41647   5.96650   5.96790   5.97088
  Beta virt. eigenvalues --    5.97127   5.99637   5.99755   6.31941   6.32769
  Beta virt. eigenvalues --    6.35489   6.49904   6.51024   6.56721   6.57085
  Beta virt. eigenvalues --    6.57668   6.57709   6.58885   6.59316   6.59507
  Beta virt. eigenvalues --    6.59733   6.60578   6.60580   6.61646   6.65741
  Beta virt. eigenvalues --    6.70603   6.70894   6.71107   6.71657   6.71732
  Beta virt. eigenvalues --    6.72175   6.76239   6.76366   6.76487   6.77035
  Beta virt. eigenvalues --    6.78023   6.78531   6.79461   6.96125   6.96256
  Beta virt. eigenvalues --    6.96608   6.97185   6.98371   6.98435   7.14735
  Beta virt. eigenvalues --    7.14927   7.14929   7.15251   7.16291   7.16893
  Beta virt. eigenvalues --    8.25576   8.29997   8.33653  29.28263  35.90024
  Beta virt. eigenvalues --   35.93270  35.95929  49.72235  49.72522  49.72634
  Beta virt. eigenvalues --   49.73593  49.74098  49.74997 161.69776 844.15286
          Condensed to atoms (all electrons):
               1          2          3          4          5          6
     1  Ni  26.256114   0.056681  -0.002096  -0.002486   0.054920  -0.000665
     2  O    0.056681   7.895346   0.294211   0.292843  -0.000767  -0.000052
     3  H   -0.002096   0.294211   0.399307  -0.006318  -0.000035   0.000032
     4  H   -0.002486   0.292843  -0.006318   0.403200  -0.000047   0.000018
     5  O    0.054920  -0.000767  -0.000035  -0.000047   7.912675   0.285119
     6  H   -0.000665  -0.000052   0.000032   0.000018   0.285119   0.407256
     7  H   -0.003077  -0.000088   0.000013   0.000015   0.286791  -0.003785
     8  O    0.058107  -0.000676   0.000088   0.000065  -0.004707   0.000296
     9  H   -0.001615  -0.000108   0.000008   0.000061  -0.000882   0.000034
    10  H   -0.003886   0.000235  -0.000016   0.000083   0.001893   0.000399
    11  O    0.056681  -0.000058  -0.000004  -0.000003  -0.000865  -0.000076
    12  H   -0.002096  -0.000004   0.000004   0.000002   0.000030   0.000018
    13  H   -0.002486  -0.000003   0.000002   0.000005   0.000087   0.000039
    14  O    0.054920  -0.000865   0.000030   0.000087  -0.000067  -0.000010
    15  H   -0.000665  -0.000076   0.000018   0.000039  -0.000010   0.000004
    16  H   -0.003077   0.000931   0.000045   0.000131  -0.000002   0.000002
    17  O    0.058107  -0.000559   0.000055  -0.000114  -0.000062  -0.000048
    18  H   -0.001615  -0.000109   0.000007   0.000026  -0.000052   0.000011
    19  H   -0.003886   0.000169  -0.000021   0.000015  -0.000007   0.000013
               7          8          9         10         11         12
     1  Ni  -0.003077   0.058107  -0.001615  -0.003886   0.056681  -0.002096
     2  O   -0.000088  -0.000676  -0.000108   0.000235  -0.000058  -0.000004
     3  H    0.000013   0.000088   0.000008  -0.000016  -0.000004   0.000004
     4  H    0.000015   0.000065   0.000061   0.000083  -0.000003   0.000002
     5  O    0.286791  -0.004707  -0.000882   0.001893  -0.000865   0.000030
     6  H   -0.003785   0.000296   0.000034   0.000399  -0.000076   0.000018
     7  H    0.405394  -0.000025   0.000124   0.000506   0.000931   0.000045
     8  O   -0.000025   7.906260   0.276826   0.280855  -0.000559   0.000055
     9  H    0.000124   0.276826   0.411954   0.000241  -0.000109   0.000007
    10  H    0.000506   0.280855   0.000241   0.413087   0.000169  -0.000021
    11  O    0.000931  -0.000559  -0.000109   0.000169   7.895346   0.294211
    12  H    0.000045   0.000055   0.000007  -0.000021   0.294211   0.399307
    13  H    0.000131  -0.000114   0.000026   0.000015   0.292843  -0.006318
    14  O   -0.000002  -0.000062  -0.000052  -0.000007  -0.000767  -0.000035
    15  H    0.000002  -0.000048   0.000011   0.000013  -0.000052   0.000032
    16  H    0.000006   0.000007   0.000011  -0.000001  -0.000088   0.000013
    17  O    0.000007  -0.000065  -0.000006   0.000018  -0.000676   0.000088
    18  H    0.000011  -0.000006   0.000003   0.000003  -0.000108   0.000008
    19  H   -0.000001   0.000018   0.000003   0.000005   0.000235  -0.000016
              13         14         15         16         17         18
     1  Ni  -0.002486   0.054920  -0.000665  -0.003077   0.058107  -0.001615
     2  O   -0.000003  -0.000865  -0.000076   0.000931  -0.000559  -0.000109
     3  H    0.000002   0.000030   0.000018   0.000045   0.000055   0.000007
     4  H    0.000005   0.000087   0.000039   0.000131  -0.000114   0.000026
     5  O    0.000087  -0.000067  -0.000010  -0.000002  -0.000062  -0.000052
     6  H    0.000039  -0.000010   0.000004   0.000002  -0.000048   0.000011
     7  H    0.000131  -0.000002   0.000002   0.000006   0.000007   0.000011
     8  O   -0.000114  -0.000062  -0.000048   0.000007  -0.000065  -0.000006
     9  H    0.000026  -0.000052   0.000011   0.000011  -0.000006   0.000003
    10  H    0.000015  -0.000007   0.000013  -0.000001   0.000018   0.000003
    11  O    0.292843  -0.000767  -0.000052  -0.000088  -0.000676  -0.000108
    12  H   -0.006318  -0.000035   0.000032   0.000013   0.000088   0.000008
    13  H    0.403200  -0.000047   0.000018   0.000015   0.000065   0.000061
    14  O   -0.000047   7.912675   0.285119   0.286791  -0.004707  -0.000882
    15  H    0.000018   0.285119   0.407256  -0.003785   0.000296   0.000034
    16  H    0.000015   0.286791  -0.003785   0.405394  -0.000025   0.000124
    17  O    0.000065  -0.004707   0.000296  -0.000025   7.906260   0.276826
    18  H    0.000061  -0.000882   0.000034   0.000124   0.276826   0.411954
    19  H    0.000083   0.001893   0.000399   0.000506   0.280855   0.000241
              19
     1  Ni  -0.003886
     2  O    0.000169
     3  H   -0.000021
     4  H    0.000015
     5  O   -0.000007
     6  H    0.000013
     7  H   -0.000001
     8  O    0.000018
     9  H    0.000003
    10  H    0.000005
    11  O    0.000235
    12  H   -0.000016
    13  H    0.000083
    14  O    0.001893
    15  H    0.000399
    16  H    0.000506
    17  O    0.280855
    18  H    0.000241
    19  H    0.413087
          Atomic-Atomic Spin Densities.
               1          2          3          4          5          6
     1  Ni   1.948741  -0.003955   0.000145   0.000159  -0.004027   0.000172
     2  O   -0.003955   0.014839  -0.000049   0.000030  -0.000018  -0.000008
     3  H    0.000145  -0.000049   0.000120   0.000264  -0.000003   0.000000
     4  H    0.000159   0.000030   0.000264  -0.000045  -0.000001  -0.000001
     5  O   -0.004027  -0.000018  -0.000003  -0.000001   0.014219   0.000127
     6  H    0.000172  -0.000008   0.000000  -0.000001   0.000127   0.000019
     7  H    0.000144  -0.000004   0.000000   0.000001   0.000622   0.000016
     8  O   -0.004266  -0.000023   0.000002  -0.000029  -0.000276  -0.000023
     9  H    0.000161   0.000010  -0.000001   0.000002   0.000013   0.000003
    10  H    0.000220   0.000009  -0.000001   0.000005   0.000066   0.000008
    11  O   -0.003955   0.000026   0.000002   0.000001  -0.000071   0.000008
    12  H    0.000145   0.000002   0.000000   0.000000   0.000017  -0.000002
    13  H    0.000159   0.000001   0.000000   0.000000   0.000007  -0.000001
    14  O   -0.004027  -0.000071   0.000017   0.000007   0.000025   0.000002
    15  H    0.000172   0.000008  -0.000002  -0.000001   0.000002   0.000000
    16  H    0.000144  -0.000036   0.000000   0.000005   0.000000   0.000000
    17  O   -0.004266  -0.000049  -0.000002  -0.000004  -0.000034  -0.000002
    18  H    0.000161   0.000001  -0.000002   0.000001  -0.000014   0.000001
    19  H    0.000220   0.000012  -0.000002   0.000002  -0.000002   0.000001
               7          8          9         10         11         12
     1  Ni   0.000144  -0.004266   0.000161   0.000220  -0.003955   0.000145
     2  O   -0.000004  -0.000023   0.000010   0.000009   0.000026   0.000002
     3  H    0.000000   0.000002  -0.000001  -0.000001   0.000002   0.000000
     4  H    0.000001  -0.000029   0.000002   0.000005   0.000001   0.000000
     5  O    0.000622  -0.000276   0.000013   0.000066  -0.000071   0.000017
     6  H    0.000016  -0.000023   0.000003   0.000008   0.000008  -0.000002
     7  H   -0.000476   0.000027  -0.000002  -0.000017  -0.000036   0.000000
     8  O    0.000027   0.016082   0.000080   0.001318  -0.000049  -0.000002
     9  H   -0.000002   0.000080   0.000429  -0.000136   0.000001  -0.000002
    10  H   -0.000017   0.001318  -0.000136  -0.000845   0.000012  -0.000002
    11  O   -0.000036  -0.000049   0.000001   0.000012   0.014839  -0.000049
    12  H    0.000000  -0.000002  -0.000002  -0.000002  -0.000049   0.000120
    13  H    0.000005  -0.000004   0.000001   0.000002   0.000030   0.000264
    14  O    0.000000  -0.000034  -0.000014  -0.000002  -0.000018  -0.000003
    15  H    0.000000  -0.000002   0.000001   0.000001  -0.000008   0.000000
    16  H    0.000000  -0.000005   0.000002   0.000001  -0.000004   0.000000
    17  O   -0.000005   0.000026   0.000002  -0.000002  -0.000023   0.000002
    18  H    0.000002   0.000002   0.000000   0.000000   0.000010  -0.000001
    19  H    0.000001  -0.000002   0.000000   0.000000   0.000009  -0.000001
              13         14         15         16         17         18
     1  Ni   0.000159  -0.004027   0.000172   0.000144  -0.004266   0.000161
     2  O    0.000001  -0.000071   0.000008  -0.000036  -0.000049   0.000001
     3  H    0.000000   0.000017  -0.000002   0.000000  -0.000002  -0.000002
     4  H    0.000000   0.000007  -0.000001   0.000005  -0.000004   0.000001
     5  O    0.000007   0.000025   0.000002   0.000000  -0.000034  -0.000014
     6  H   -0.000001   0.000002   0.000000   0.000000  -0.000002   0.000001
     7  H    0.000005   0.000000   0.000000   0.000000  -0.000005   0.000002
     8  O   -0.000004  -0.000034  -0.000002  -0.000005   0.000026   0.000002
     9  H    0.000001  -0.000014   0.000001   0.000002   0.000002   0.000000
    10  H    0.000002  -0.000002   0.000001   0.000001  -0.000002   0.000000
    11  O    0.000030  -0.000018  -0.000008  -0.000004  -0.000023   0.000010
    12  H    0.000264  -0.000003   0.000000   0.000000   0.000002  -0.000001
    13  H   -0.000045  -0.000001  -0.000001   0.000001  -0.000029   0.000002
    14  O   -0.000001   0.014219   0.000127   0.000622  -0.000276   0.000013
    15  H   -0.000001   0.000127   0.000019   0.000016  -0.000023   0.000003
    16  H    0.000001   0.000622   0.000016  -0.000476   0.000027  -0.000002
    17  O   -0.000029  -0.000276  -0.000023   0.000027   0.016082   0.000080
    18  H    0.000002   0.000013   0.000003  -0.000002   0.000080   0.000429
    19  H    0.000005   0.000066   0.000008  -0.000017   0.001318  -0.000136
              19
     1  Ni   0.000220
     2  O    0.000012
     3  H   -0.000002
     4  H    0.000002
     5  O   -0.000002
     6  H    0.000001
     7  H    0.000001
     8  O   -0.000002
     9  H    0.000000
    10  H    0.000000
    11  O    0.000009
    12  H   -0.000001
    13  H    0.000005
    14  O    0.000066
    15  H    0.000008
    16  H   -0.000017
    17  O    0.001318
    18  H   -0.000136
    19  H   -0.000845
 Mulliken charges and spin densities:
               1          2
     1  Ni   1.432122   1.926249
     2  O   -0.537050   0.010726
     3  H    0.314670   0.000490
     4  H    0.312376   0.000396
     5  O   -0.534012   0.010654
     6  H    0.311395   0.000322
     7  H    0.313002   0.000279
     8  O   -0.516314   0.012823
     9  H    0.313463   0.000548
    10  H    0.306409   0.000638
    11  O   -0.537050   0.010726
    12  H    0.314670   0.000490
    13  H    0.312376   0.000396
    14  O   -0.534012   0.010654
    15  H    0.311395   0.000322
    16  H    0.313002   0.000279
    17  O   -0.516314   0.012823
    18  H    0.313463   0.000548
    19  H    0.306409   0.000638
 Sum of Mulliken charges =   2.00000   2.00000
 Mulliken charges and spin densities with hydrogens summed into heavy atoms:
               1          2
     1  Ni   1.432122   1.926249
     2  O    0.089996   0.011612
     5  O    0.090385   0.011255
     8  O    0.103558   0.014009
    11  O    0.089996   0.011612
    14  O    0.090385   0.011255
    17  O    0.103558   0.014009
 Electronic spatial extent (au):  <R**2>=           2379.0510
 Charge=              2.0000 electrons
 Dipole moment (field-independent basis, Debye):
    X=              0.0000    Y=              0.0000    Z=              0.0000  Tot=              0.0000
 Quadrupole moment (field-independent basis, Debye-Ang):
   XX=             -5.0487   YY=            -11.1125   ZZ=             -5.1604
   XY=              3.7239   XZ=              3.8358   YZ=              9.8682
 Traceless Quadrupole moment (field-independent basis, Debye-Ang):
   XX=              2.0585   YY=             -4.0053   ZZ=              1.9468
   XY=              3.7239   XZ=              3.8358   YZ=              9.8682
 Octapole moment (field-independent basis, Debye-Ang**2):
  XXX=              0.0000  YYY=              0.0000  ZZZ=              0.0000  XYY=              0.0000
  XXY=              0.0000  XXZ=              0.0000  XZZ=              0.0000  YZZ=              0.0000
  YYZ=              0.0000  XYZ=              0.0000
 Hexadecapole moment (field-independent basis, Debye-Ang**3):
 XXXX=            -54.8553 YYYY=           -199.2198 ZZZZ=           -109.8914 XXXY=             13.0685
 XXXZ=            -56.7017 YYYX=             87.9383 YYYZ=           -115.9215 ZZZX=            -55.4389
 ZZZY=            -56.6104 XXYY=           -236.4785 XXZZ=           -243.4357 YYZZ=           -225.8310
 XXYZ=            -66.9729 YYXZ=             -8.1635 ZZXY=             21.1125
 N-N= 4.907901373205D+02 E-N=-5.634901253333D+03  KE= 1.962479730964D+03
                          Isotropic Fermi Contact Couplings
        Atom                 a.u.       MegaHertz       Gauss      10(-4) cm-1
     1  Ni(61)            -1.11069     222.21064      79.29028      74.12149
     2  O(17)              0.01409      -4.27035      -1.52377      -1.42444
     3  H(1)              -0.00003      -0.06072      -0.02167      -0.02025
     4  H(1)              -0.00005      -0.11122      -0.03969      -0.03710
     5  O(17)              0.01146      -3.47301      -1.23926      -1.15847
     6  H(1)              -0.00009      -0.20685      -0.07381      -0.06900
     7  H(1)              -0.00012      -0.26123      -0.09321      -0.08714
     8  O(17)              0.01351      -4.09552      -1.46138      -1.36612
     9  H(1)              -0.00006      -0.13644      -0.04869      -0.04551
    10  H(1)              -0.00015      -0.34262      -0.12226      -0.11429
    11  O(17)              0.01409      -4.27035      -1.52377      -1.42444
    12  H(1)              -0.00003      -0.06072      -0.02167      -0.02025
    13  H(1)              -0.00005      -0.11122      -0.03969      -0.03710
    14  O(17)              0.01146      -3.47301      -1.23926      -1.15847
    15  H(1)              -0.00009      -0.20685      -0.07381      -0.06900
    16  H(1)              -0.00012      -0.26123      -0.09321      -0.08714
    17  O(17)              0.01351      -4.09552      -1.46138      -1.36612
    18  H(1)              -0.00006      -0.13644      -0.04869      -0.04551
    19  H(1)              -0.00015      -0.34262      -0.12226      -0.11429
 --------------------------------------------------------
       Center         ----  Spin Dipole Couplings  ----
                      3XX-RR        3YY-RR        3ZZ-RR
 --------------------------------------------------------
     1   Atom       -0.020612      0.004528      0.016084
     2   Atom        0.046213     -0.038225     -0.007988
     3   Atom        0.010049     -0.003956     -0.006093
     4   Atom        0.009046     -0.002483     -0.006563
     5   Atom       -0.037087      0.005374      0.031713
     6   Atom       -0.004335     -0.005719      0.010054
     7   Atom       -0.002272     -0.005999      0.008271
     8   Atom       -0.018950      0.047901     -0.028951
     9   Atom       -0.006291      0.011172     -0.004881
    10   Atom       -0.007401      0.006956      0.000445
    11   Atom        0.046213     -0.038225     -0.007988
    12   Atom        0.010049     -0.003956     -0.006093
    13   Atom        0.009046     -0.002483     -0.006563
    14   Atom       -0.037087      0.005374      0.031713
    15   Atom       -0.004335     -0.005719      0.010054
    16   Atom       -0.002272     -0.005999      0.008271
    17   Atom       -0.018950      0.047901     -0.028951
    18   Atom       -0.006291      0.011172     -0.004881
    19   Atom       -0.007401      0.006956      0.000445
 --------------------------------------------------------
                        XY            XZ            YZ
 --------------------------------------------------------
     1   Atom       -0.065313      0.137835      0.293641
     2   Atom       -0.003392      0.045480     -0.001617
     3   Atom        0.004051      0.000781     -0.001009
     4   Atom       -0.005507      0.001792      0.000395
     5   Atom        0.008480      0.010749      0.050527
     6   Atom        0.000583     -0.003533      0.002970
     7   Atom       -0.000075      0.006315      0.003118
     8   Atom       -0.043596     -0.019333      0.036953
     9   Atom        0.000876     -0.001337     -0.001100
    10   Atom       -0.000240      0.001770      0.007815
    11   Atom       -0.003392      0.045480     -0.001617
    12   Atom        0.004051      0.000781     -0.001009
    13   Atom       -0.005507      0.001792      0.000395
    14   Atom        0.008480      0.010749      0.050527
    15   Atom        0.000583     -0.003533      0.002970
    16   Atom       -0.000075      0.006315      0.003118
    17   Atom       -0.043596     -0.019333      0.036953
    18   Atom        0.000876     -0.001337     -0.001100
    19   Atom       -0.000240      0.001770      0.007815
 --------------------------------------------------------


 ---------------------------------------------------------------------------------
              Anisotropic Spin Dipole Couplings in Principal Axis System
 ---------------------------------------------------------------------------------

       Atom             a.u.   MegaHertz   Gauss  10(-4) cm-1        Axes

              Baa    -0.3470    16.573     5.914     5.528 -0.4059 -0.6292  0.6629
     1 Ni(61) Bbb     0.0337    -1.611    -0.575    -0.537  0.8974 -0.4117  0.1587
              Bcc     0.3133   -14.962    -5.339    -4.991  0.1731  0.6593  0.7317
 
              Baa    -0.0384     2.776     0.991     0.926  0.0588  0.9977 -0.0349
     2 O(17)  Bbb    -0.0338     2.447     0.873     0.816 -0.4913  0.0593  0.8690
              Bcc     0.0722    -5.223    -1.864    -1.742  0.8690 -0.0339  0.4937
 
              Baa    -0.0069    -3.664    -1.307    -1.222 -0.1628  0.5178  0.8399
     3 H(1)   Bbb    -0.0043    -2.286    -0.816    -0.762 -0.2011  0.8159 -0.5420
              Bcc     0.0112     5.949     2.123     1.985  0.9660  0.2571  0.0287
 
              Baa    -0.0071    -3.803    -1.357    -1.268 -0.2152 -0.3332  0.9180
     4 H(1)   Bbb    -0.0043    -2.271    -0.810    -0.757  0.3075  0.8690  0.3876
              Bcc     0.0114     6.073     2.167     2.026  0.9269 -0.3657  0.0845
 
              Baa    -0.0388     2.808     1.002     0.937  0.9919 -0.0968 -0.0818
     5 O(17)  Bbb    -0.0337     2.436     0.869     0.813  0.0264  0.7889 -0.6140
              Bcc     0.0725    -5.244    -1.871    -1.749  0.1240  0.6069  0.7851
 
              Baa    -0.0070    -3.727    -1.330    -1.243 -0.5131  0.8213 -0.2495
     6 H(1)   Bbb    -0.0043    -2.315    -0.826    -0.772  0.8319  0.5474  0.0912
              Bcc     0.0113     6.042     2.156     2.015 -0.2115  0.1608  0.9641
 
              Baa    -0.0073    -3.913    -1.396    -1.305  0.4417  0.8285 -0.3443
     7 H(1)   Bbb    -0.0043    -2.313    -0.825    -0.772  0.7997 -0.5375 -0.2676
              Bcc     0.0117     6.226     2.222     2.077  0.4068  0.1571  0.8999
 
              Baa    -0.0445     3.217     1.148     1.073  0.3506 -0.2005  0.9148
     8 O(17)  Bbb    -0.0402     2.912     1.039     0.971  0.8382  0.5030 -0.2110
              Bcc     0.0847    -6.129    -2.187    -2.045 -0.4178  0.8407  0.3444
 
              Baa    -0.0071    -3.788    -1.351    -1.263  0.8587 -0.0103  0.5124
     9 H(1)   Bbb    -0.0042    -2.242    -0.800    -0.748 -0.5095  0.0903  0.8557
              Bcc     0.0113     6.029     2.151     2.011  0.0551  0.9959 -0.0723
 
              Baa    -0.0082    -4.367    -1.558    -1.457  0.9046  0.2068 -0.3728
    10 H(1)   Bbb    -0.0040    -2.141    -0.764    -0.714  0.4244 -0.5192  0.7418
              Bcc     0.0122     6.508     2.322     2.171  0.0402  0.8292  0.5574
 
              Baa    -0.0384     2.776     0.991     0.926  0.0588  0.9977 -0.0349
    11 O(17)  Bbb    -0.0338     2.447     0.873     0.816 -0.4913  0.0593  0.8690
              Bcc     0.0722    -5.223    -1.864    -1.742  0.8690 -0.0339  0.4937
 
              Baa    -0.0069    -3.664    -1.307    -1.222 -0.1628  0.5178  0.8399
    12 H(1)   Bbb    -0.0043    -2.286    -0.816    -0.762 -0.2011  0.8159 -0.5420
              Bcc     0.0112     5.949     2.123     1.985  0.9660  0.2571  0.0287
 
              Baa    -0.0071    -3.803    -1.357    -1.268 -0.2152 -0.3332  0.9180
    13 H(1)   Bbb    -0.0043    -2.271    -0.810    -0.757  0.3075  0.8690  0.3876
              Bcc     0.0114     6.073     2.167     2.026  0.9269 -0.3657  0.0845
 
              Baa    -0.0388     2.808     1.002     0.937  0.9919 -0.0968 -0.0818
    14 O(17)  Bbb    -0.0337     2.436     0.869     0.813  0.0264  0.7889 -0.6140
              Bcc     0.0725    -5.244    -1.871    -1.749  0.1240  0.6069  0.7851
 
              Baa    -0.0070    -3.727    -1.330    -1.243 -0.5131  0.8213 -0.2495
    15 H(1)   Bbb    -0.0043    -2.315    -0.826    -0.772  0.8319  0.5474  0.0912
              Bcc     0.0113     6.042     2.156     2.015 -0.2115  0.1608  0.9641
 
              Baa    -0.0073    -3.913    -1.396    -1.305  0.4417  0.8285 -0.3443
    16 H(1)   Bbb    -0.0043    -2.313    -0.825    -0.772  0.7997 -0.5375 -0.2676
              Bcc     0.0117     6.226     2.222     2.077  0.4068  0.1571  0.8999
 
              Baa    -0.0445     3.217     1.148     1.073  0.3506 -0.2005  0.9148
    17 O(17)  Bbb    -0.0402     2.912     1.039     0.971  0.8382  0.5030 -0.2110
              Bcc     0.0847    -6.129    -2.187    -2.045 -0.4178  0.8407  0.3444
 
              Baa    -0.0071    -3.788    -1.351    -1.263  0.8587 -0.0103  0.5124
    18 H(1)   Bbb    -0.0042    -2.242    -0.800    -0.748 -0.5095  0.0903  0.8557
              Bcc     0.0113     6.029     2.151     2.011  0.0551  0.9959 -0.0723
 
              Baa    -0.0082    -4.367    -1.558    -1.457  0.9046  0.2068 -0.3728
    19 H(1)   Bbb    -0.0040    -2.141    -0.764    -0.714  0.4244 -0.5192  0.7418
              Bcc     0.0122     6.508     2.322     2.171  0.0402  0.8292  0.5574
 

 ---------------------------------------------------------------------------------

 Calling FoFJK, ICntrl=      2127 FMM=F ISym2X=0 I1Cent= 0 IOpClX= 1 NMat=1 NMatS=1 NMatT=0.
 -------------------------------------------------------------------
 Center     Atomic                   Forces (Hartrees/Bohr)
 Number     Number              X              Y              Z
 -------------------------------------------------------------------
      1       28           0.000000000    0.000000001    0.000000001
      2        8           0.015523368   -0.002795731    0.004155801
      3        1           0.002342828    0.002412103   -0.000958426
      4        1           0.000373411   -0.000316757   -0.000117376
      5        8          -0.000743722   -0.004698788   -0.018647176
      6        1          -0.001879388   -0.000144876    0.001566241
      7        1           0.001185953   -0.000055311    0.000424971
      8        8           0.001493399   -0.019431813   -0.007532345
      9        1          -0.000305986   -0.001802032    0.002444408
     10        1           0.000538475    0.000993732    0.000605965
     11        8          -0.015523368    0.002795731   -0.004155801
     12        1          -0.002342828   -0.002412102    0.000958425
     13        1          -0.000373411    0.000316756    0.000117376
     14        8           0.000743722    0.004698788    0.018647176
     15        1           0.001879389    0.000144876   -0.001566241
     16        1          -0.001185954    0.000055312   -0.000424971
     17        8          -0.001493398    0.019431813    0.007532345
     18        1           0.000305985    0.001802032   -0.002444406
     19        1          -0.000538476   -0.000993731   -0.000605966
 -------------------------------------------------------------------
 Cartesian Forces:  Max     0.019431813 RMS     0.006223918

 GradGradGradGradGradGradGradGradGradGradGradGradGradGradGradGradGradGrad
 Berny optimization.
 FormGI is forming the generalized inverse of G from B-inverse, IUseBI=4.
 Internal  Forces:  Max     0.020796362 RMS     0.004414502
 Search for a local minimum.
 Step number   1 out of a maximum of  114
 All quantities printed in internal units (Hartrees-Bohrs-Radians)
 Mixed Optimization -- En-DIIS/RFO-DIIS
 Second derivative matrix not updated -- first step.
 ITU=  0
     Eigenvalues ---    0.00230   0.00230   0.00230   0.00230   0.00230
     Eigenvalues ---    0.00230   0.00797   0.00801   0.01046   0.01051
     Eigenvalues ---    0.01093   0.01099   0.02478   0.03308   0.03596
     Eigenvalues ---    0.04847   0.06853   0.07522   0.10042   0.14460
     Eigenvalues ---    0.16000   0.16000   0.16000   0.16000   0.16000
     Eigenvalues ---    0.16000   0.16000   0.16000   0.16000   0.16000
     Eigenvalues ---    0.16000   0.16000   0.19397   0.54047   0.54047
     Eigenvalues ---    0.54230   0.54230   0.54595   0.54595   0.54839
     Eigenvalues ---    0.54839   0.54889   0.54889   0.55081   0.55081
     Eigenvalues --- 1000.000001000.000001000.000001000.000001000.00000
     Eigenvalues --- 1000.000001000.000001000.000001000.000001000.00000
     Eigenvalues --- 1000.000001000.000001000.000001000.000001000.00000
     Eigenvalues --- 1000.000001000.000001000.000001000.000001000.00000
     Eigenvalues --- 1000.000001000.000001000.000001000.000001000.00000
     Eigenvalues --- 1000.000001000.000001000.000001000.000001000.00000
     Eigenvalues --- 1000.000001000.000001000.000001000.000001000.00000
     Eigenvalues --- 1000.000001000.000001000.000001000.000001000.00000
     Eigenvalues --- 1000.000001000.000001000.000001000.000001000.00000
     Eigenvalues --- 1000.000001000.000001000.000001000.000001000.00000
     Eigenvalues --- 1000.000001000.000001000.000001000.000001000.00000
     Eigenvalues --- 1000.000001000.000001000.000001000.000001000.00000
     Eigenvalues --- 1000.000001000.000001000.000001000.000001000.00000
     Eigenvalues --- 1000.000001000.000001000.000001000.00000
 RFO step:  Lambda=-2.14613037D-04 EMin= 2.30000000D-03
 Linear search not attempted -- first point.
 Iteration  1 RMS(Cart)=  0.01198706 RMS(Int)=  0.00007440
 Iteration  2 RMS(Cart)=  0.00007929 RMS(Int)=  0.00000851
 Iteration  3 RMS(Cart)=  0.00000001 RMS(Int)=  0.00000851
 Iteration  1 RMS(Cart)=  0.00000000 RMS(Int)=  0.00000000
 Variable       Old X    -DE/DX   Delta X   Delta X   Delta X     New X
                                 (Linear)    (Quad)   (Total)
    R1        6.04712  -0.01851   0.00000   0.00000   0.00000   6.04712
    R2        6.04712  -0.01741   0.00000   0.00000   0.00000   6.04712
    R3        6.04712  -0.02080   0.00000   0.00000   0.00000   6.04712
    R4        6.04712  -0.01851   0.00000   0.00000   0.00000   6.04712
    R5        6.04712  -0.01741   0.00000   0.00000   0.00000   6.04712
    R6        6.04712  -0.02080   0.00000   0.00000   0.00000   6.04712
    R7        1.82689  -0.00349   0.00000  -0.00646  -0.00646   1.82043
    R8        1.82194  -0.00047   0.00000  -0.00087  -0.00087   1.82107
    R9        1.81760   0.00243   0.00000   0.00440   0.00440   1.82200
   R10        1.81975   0.00122   0.00000   0.00223   0.00223   1.82198
   R11        1.82523  -0.00281   0.00000  -0.00518  -0.00518   1.82005
   R12        1.81931   0.00086   0.00000   0.00156   0.00156   1.82087
   R13        1.82689  -0.00349   0.00000  -0.00646  -0.00646   1.82043
   R14        1.82194  -0.00047   0.00000  -0.00087  -0.00087   1.82107
   R15        1.81760   0.00243   0.00000   0.00440   0.00440   1.82200
   R16        1.81975   0.00122   0.00000   0.00223   0.00223   1.82198
   R17        1.82523  -0.00281   0.00000  -0.00518  -0.00518   1.82005
   R18        1.81931   0.00086   0.00000   0.00156   0.00156   1.82087
    A1        1.81582   0.00007   0.00000   0.00225   0.00223   1.81805
    A2        1.48492   0.00010   0.00000  -0.00175  -0.00173   1.48319
    A3        1.32578  -0.00007   0.00000  -0.00225  -0.00223   1.32354
    A4        1.65668  -0.00010   0.00000   0.00175   0.00173   1.65841
    A5        1.04097  -0.00061   0.00000  -0.00551  -0.00551   1.03546
    A6        1.32578  -0.00007   0.00000  -0.00225  -0.00223   1.32354
    A7        2.10063   0.00061   0.00000   0.00551   0.00551   2.10613
    A8        1.65668  -0.00010   0.00000   0.00175   0.00173   1.65841
    A9        2.10063   0.00061   0.00000   0.00551   0.00551   2.10613
   A10        1.81582   0.00007   0.00000   0.00225   0.00223   1.81805
   A11        1.48492   0.00010   0.00000  -0.00175  -0.00173   1.48319
   A12        1.04097  -0.00061   0.00000  -0.00551  -0.00551   1.03546
   A13        2.15527  -0.00010   0.00000  -0.00033  -0.00033   2.15494
   A14        2.07889  -0.00012   0.00000  -0.00043  -0.00043   2.07847
   A15        1.84586   0.00018   0.00000   0.00154   0.00154   1.84740
   A16        2.13465   0.00000   0.00000   0.00262   0.00259   2.13724
   A17        2.01470   0.00001   0.00000   0.00286   0.00283   2.01753
   A18        1.84377   0.00008   0.00000   0.00424   0.00420   1.84797
   A19        2.24319   0.00070   0.00000   0.00231   0.00231   2.24550
   A20        1.88466   0.00068   0.00000   0.00175   0.00175   1.88641
   A21        1.87723  -0.00108   0.00000  -0.00983  -0.00984   1.86740
   A22        2.15527  -0.00010   0.00000  -0.00033  -0.00033   2.15494
   A23        2.07889  -0.00012   0.00000  -0.00043  -0.00043   2.07847
   A24        1.84586   0.00018   0.00000   0.00154   0.00154   1.84740
   A25        2.13465   0.00000   0.00000   0.00262   0.00259   2.13724
   A26        2.01470   0.00001   0.00000   0.00286   0.00283   2.01753
   A27        1.84377   0.00008   0.00000   0.00424   0.00420   1.84797
   A28        2.24319   0.00070   0.00000   0.00231   0.00231   2.24550
   A29        1.88466   0.00068   0.00000   0.00175   0.00175   1.88641
   A30        1.87723  -0.00108   0.00000  -0.00983  -0.00984   1.86740
   A31        3.14159   0.00000   0.00000   0.00000   0.00000   3.14159
   A32        3.14159   0.00000   0.00000   0.00000   0.00000   3.14159
   A33        3.14159   0.00000   0.00000   0.00000   0.00000   3.14159
   A34        3.14159   0.00000   0.00000   0.00000   0.00000   3.14159
   A35        3.14159   0.00000   0.00000   0.00000   0.00000   3.14159
   A36        3.14159   0.00000   0.00000   0.00000   0.00000   3.14159
    D1       -1.42756  -0.00032   0.00000  -0.00241  -0.00241  -1.42997
    D2        0.97806  -0.00030   0.00000  -0.00058  -0.00058   0.97748
    D3       -2.42268   0.00031   0.00000   0.00467   0.00467  -2.41801
    D4       -0.01706   0.00033   0.00000   0.00650   0.00650  -0.01056
    D5        1.71404  -0.00032   0.00000  -0.00241  -0.00241   1.71162
    D6       -2.16353  -0.00030   0.00000  -0.00058  -0.00058  -2.16411
    D7        0.71891   0.00031   0.00000   0.00467   0.00467   0.72358
    D8        3.12453   0.00033   0.00000   0.00650   0.00650   3.13103
    D9        3.14159   0.00000   0.00000   0.00000   0.00000   3.14159
   D10        0.73597  -0.00002   0.00000  -0.00183  -0.00183   0.73414
   D11       -0.73597   0.00002   0.00000   0.00183   0.00183  -0.73414
   D12        3.14159   0.00000   0.00000   0.00000   0.00000   3.14159
   D13        0.55276   0.00000   0.00000  -0.00753  -0.00753   0.54523
   D14        2.83631   0.00015   0.00000   0.00618   0.00619   2.84249
   D15        1.87200  -0.00017   0.00000  -0.01344  -0.01344   1.85856
   D16       -2.12764  -0.00002   0.00000   0.00028   0.00028  -2.12736
   D17       -2.58883   0.00000   0.00000  -0.00753  -0.00753  -2.59636
   D18       -0.30528   0.00015   0.00000   0.00618   0.00619  -0.29910
   D19       -1.26959  -0.00017   0.00000  -0.01344  -0.01344  -1.28303
   D20        1.01396  -0.00002   0.00000   0.00028   0.00028   1.01423
   D21        3.14159   0.00000   0.00000   0.00000   0.00000  -3.14159
   D22        0.85805  -0.00015   0.00000  -0.01371  -0.01372   0.84433
   D23       -0.85805   0.00015   0.00000   0.01371   0.01372  -0.84433
   D24        3.14159   0.00000   0.00000   0.00000   0.00000   3.14159
   D25       -1.84863  -0.00002   0.00000  -0.02526  -0.02525  -1.87389
   D26        2.13783   0.00011   0.00000  -0.01342  -0.01341   2.12441
   D27        2.52472  -0.00022   0.00000  -0.03073  -0.03073   2.49399
   D28        0.22799  -0.00009   0.00000  -0.01889  -0.01889   0.20910
   D29        1.29296  -0.00002   0.00000  -0.02526  -0.02525   1.26771
   D30       -1.00377   0.00011   0.00000  -0.01342  -0.01341  -1.01718
   D31       -0.61688  -0.00022   0.00000  -0.03073  -0.03073  -0.64761
   D32       -2.91360  -0.00009   0.00000  -0.01889  -0.01889  -2.93249
   D33        3.14159   0.00000   0.00000   0.00000   0.00000   3.14159
   D34       -0.84487  -0.00013   0.00000  -0.01184  -0.01184  -0.85671
   D35        0.84487   0.00013   0.00000   0.01184   0.01184   0.85671
   D36        3.14159   0.00000   0.00000   0.00000   0.00000   3.14159
   D37       -1.71404   0.00032   0.00000   0.00241   0.00241  -1.71162
   D38        2.16353   0.00030   0.00000   0.00058   0.00058   2.16411
   D39       -0.71891  -0.00031   0.00000  -0.00467  -0.00467  -0.72358
   D40       -3.12453  -0.00033   0.00000  -0.00650  -0.00650  -3.13103
   D41        1.42756   0.00032   0.00000   0.00241   0.00241   1.42997
   D42       -0.97806   0.00030   0.00000   0.00058   0.00058  -0.97748
   D43        2.42268  -0.00031   0.00000  -0.00467  -0.00467   2.41801
   D44        0.01706  -0.00033   0.00000  -0.00650  -0.00650   0.01056
   D45        2.58883   0.00000   0.00000   0.00753   0.00753   2.59636
   D46        0.30528  -0.00015   0.00000  -0.00618  -0.00619   0.29910
   D47        1.26959   0.00017   0.00000   0.01344   0.01344   1.28303
   D48       -1.01396   0.00002   0.00000  -0.00028  -0.00028  -1.01423
   D49       -0.55276   0.00000   0.00000   0.00753   0.00753  -0.54523
   D50       -2.83631  -0.00015   0.00000  -0.00618  -0.00619  -2.84249
   D51       -1.87200   0.00017   0.00000   0.01344   0.01344  -1.85856
   D52        2.12764   0.00002   0.00000  -0.00028  -0.00028   2.12736
   D53       -1.29296   0.00002   0.00000   0.02526   0.02525  -1.26771
   D54        1.00377  -0.00011   0.00000   0.01342   0.01341   1.01718
   D55        0.61688   0.00022   0.00000   0.03073   0.03073   0.64761
   D56        2.91360   0.00009   0.00000   0.01889   0.01889   2.93249
   D57        1.84863   0.00002   0.00000   0.02526   0.02525   1.87389
   D58       -2.13783  -0.00011   0.00000   0.01342   0.01341  -2.12441
   D59       -2.52472   0.00022   0.00000   0.03073   0.03073  -2.49399
   D60       -0.22799   0.00009   0.00000   0.01889   0.01889  -0.20910
         Item               Value     Threshold  Converged?
 Maximum Force            0.003493     0.000450     NO 
 RMS     Force            0.000775     0.000300     NO 
 Maximum Displacement     0.042729     0.001800     NO 
 RMS     Displacement     0.012020     0.001200     NO 
 Predicted change in Energy=-1.086873D-04
 GradGradGradGradGradGradGradGradGradGradGradGradGradGradGradGradGradGrad

                          Input orientation:                          
 ---------------------------------------------------------------------
 Center     Atomic      Atomic             Coordinates (Angstroms)
 Number     Number       Type             X           Y           Z
 ---------------------------------------------------------------------
      1         28           0        0.000000    0.000000    0.000000
      2          8           0       -3.149118    0.136043   -0.551858
      3          1           0       -3.764702   -0.557374   -0.290638
      4          1           0       -3.614138    0.968031   -0.409695
      5          8           0        0.305756    0.967219    3.034963
      6          1           0       -0.374280    0.808191    3.699696
      7          1           0        1.144448    0.751007    3.458562
      8          8           0       -0.284661    3.094473    0.763679
      9          1           0        0.009308    3.866039    0.267812
     10          1           0        0.022348    3.208364    1.669894
     11          8           0        3.149118   -0.136043    0.551858
     12          1           0        3.764702    0.557374    0.290638
     13          1           0        3.614138   -0.968031    0.409695
     14          8           0       -0.305756   -0.967219   -3.034963
     15          1           0        0.374280   -0.808191   -3.699696
     16          1           0       -1.144448   -0.751007   -3.458562
     17          8           0        0.284661   -3.094473   -0.763679
     18          1           0       -0.009308   -3.866039   -0.267812
     19          1           0       -0.022348   -3.208364   -1.669894
 ---------------------------------------------------------------------
                    Distance matrix (angstroms):
                    1          2          3          4          5
     1  Ni   0.000000
     2  O    3.200000   0.000000
     3  H    3.816820   0.963331   0.000000
     4  H    3.763898   0.963669   1.537435   0.000000
     5  O    3.200000   5.048989   5.472900   5.218356   0.000000
     6  H    3.805392   5.121252   5.411330   5.235392   0.964163
     7  H    3.719600   5.907314   6.314120   6.136339   0.964151
     8  O    3.200000   4.322969   5.153470   4.121162   3.167418
     9  H    3.875315   4.955843   5.841369   4.689011   4.018478
    10  H    3.616994   4.943029   5.689132   4.750560   2.639407
    11  O    3.200000   6.400000   6.977695   6.919913   3.932900
    12  H    3.816820   6.977695   7.633640   7.423367   4.434366
    13  H    3.763898   6.919913   7.423367   7.527796   4.645709
    14  O    3.200000   3.932900   4.434366   4.645709   6.400000
    15  H    3.805392   4.818174   5.368031   5.466860   6.965085
    16  H    3.719600   3.640672   4.115698   4.283696   6.871773
    17  O    3.200000   4.719316   4.801872   5.641797   5.561247
    18  H    3.875315   5.094678   5.005073   6.031845   5.862420
    19  H    3.616994   4.712935   4.789082   5.650782   6.299113
                    6          7          8          9         10
     6  H    0.000000
     7  H    1.538815   0.000000
     8  O    3.722273   3.846632   0.000000
     9  H    4.612527   4.601396   0.963128   0.000000
    10  H    3.168319   3.239914   0.963562   1.548722   0.000000
    11  O    4.818174   3.640672   4.719316   5.094678   4.712935
    12  H    5.368031   4.115698   4.801872   5.005073   4.789082
    13  H    5.466860   4.283696   5.641797   6.031845   5.650782
    14  O    6.965085   6.871773   5.561247   5.862420   6.299113
    15  H    7.610785   7.366473   5.965459   6.141884   6.714840
    16  H    7.366473   7.439200   5.775315   6.044347   6.583244
    17  O    5.965459   5.775315   6.400000   7.041911   6.761423
    18  H    6.141884   6.044347   7.041911   7.750629   7.335045
    19  H    6.714840   6.583244   6.761423   7.335045   7.233988
                   11         12         13         14         15
    11  O    0.000000
    12  H    0.963331   0.000000
    13  H    0.963669   1.537435   0.000000
    14  O    5.048989   5.472900   5.218356   0.000000
    15  H    5.121252   5.411330   5.235392   0.964163   0.000000
    16  H    5.907314   6.314120   6.136339   0.964151   1.538815
    17  O    4.322969   5.153470   4.121162   3.167418   3.722273
    18  H    4.955843   5.841369   4.689011   4.018478   4.612527
    19  H    4.943029   5.689132   4.750560   2.639407   3.168319
                   16         17         18         19
    16  H    0.000000
    17  O    3.846632   0.000000
    18  H    4.601396   0.963128   0.000000
    19  H    3.239914   0.963562   1.548722   0.000000
 Symmetry turned off by external request.
 Stoichiometry    H12NiO6(2+,3)
 Framework group  C1[X(H12NiO6)]
 Deg. of freedom    51
 Full point group                 C1      NOp   1
 Rotational constants (GHZ):      0.8881090      0.6773805      0.5086343
 Standard basis: 6-311++G(2d,2p) (5D, 7F)
   347 basis functions,   500 primitive gaussians,   369 cartesian basis functions
    44 alpha electrons       42 beta electrons
       nuclear repulsion energy       490.9583622861 Hartrees.
 NAtoms=   19 NActive=   19 NUniq=   19 SFac= 1.00D+00 NAtFMM=   60 NAOKFM=F Big=F
 Integral buffers will be    131072 words long.
 Raffenetti 2 integral format.
 Two-electron integral symmetry is turned off.
 One-electron integrals computed using PRISM.
 NBasis=   347 RedAO= T EigKep=  1.33D-03  NBF=   347
 NBsUse=   347 1.00D-06 EigRej= -1.00D+00 NBFU=   347
 Initial guess from the checkpoint file:  "Ni23_32.chk"
 B after Tr=     0.000000    0.000000    0.000000
         Rot=    1.000000    0.000100   -0.000216   -0.000171 Ang=   0.03 deg.
 Initial guess <Sx>= 0.0000 <Sy>= 0.0000 <Sz>= 1.0000 <S**2>= 2.0039 S= 1.0013
 ExpMin= 1.39D-02 ExpMax= 2.85D+05 ExpMxC= 9.63D+03 IAcc=3 IRadAn=         5 AccDes= 0.00D+00
 Harris functional with IExCor= 1009 and IRadAn=       5 diagonalized for initial guess.
 HarFok:  IExCor= 1009 AccDes= 0.00D+00 IRadAn=         5 IDoV= 1 UseB2=F ITyADJ=14
 ICtDFT=  3500011 ScaDFX=  1.000000  1.000000  1.000000  1.000000
 FoFCou: FMM=F IPFlag=           0 FMFlag=      100000 FMFlg1=           0
         NFxFlg=           0 DoJE=T BraDBF=F KetDBF=T FulRan=T
         wScrn=  0.000000 ICntrl=     500 IOpCl=  0 I1Cent=   200000004 NGrid=           0
         NMat0=    1 NMatS0=      1 NMatT0=    0 NMatD0=    1 NMtDS0=    0 NMtDT0=    0
 Symmetry not used in FoFCou.
 Keep R1 and R2 ints in memory in canonical form, NReq=3672312742.
 Requested convergence on RMS density matrix=1.00D-08 within1000 cycles.
 Requested convergence on MAX density matrix=1.00D-06.
 Requested convergence on             energy=1.00D-06.
 No special actions if energy rises.
 SCF Done:  E(UM062X) =  -1966.06073657     A.U. after   25 cycles
            NFock= 25  Conv=0.80D-08     -V/T= 2.0018
 <Sx>= 0.0000 <Sy>= 0.0000 <Sz>= 1.0000 <S**2>= 2.0039 S= 1.0013
 <L.S>= 0.000000000000E+00
 Annihilation of the first spin contaminant:
 S**2 before annihilation     2.0039,   after     2.0000
 Calling FoFJK, ICntrl=      2127 FMM=F ISym2X=0 I1Cent= 0 IOpClX= 1 NMat=1 NMatS=1 NMatT=0.
 -------------------------------------------------------------------
 Center     Atomic                   Forces (Hartrees/Bohr)
 Number     Number              X              Y              Z
 -------------------------------------------------------------------
      1       28           0.000000000    0.000000000    0.000000000
      2        8           0.017925912   -0.000718596    0.003194792
      3        1           0.000154126   -0.000025531   -0.000036892
      4        1           0.000150042    0.000031363   -0.000058731
      5        8          -0.001590037   -0.005067574   -0.016891457
      6        1           0.000203008    0.000049103    0.000160544
      7        1          -0.000152939    0.000075616    0.000189149
      8        8           0.001478133   -0.020491381   -0.004979156
      9        1           0.000161799    0.000242253    0.000157435
     10        1           0.000146676    0.000032199    0.000220560
     11        8          -0.017925911    0.000718596   -0.003194792
     12        1          -0.000154127    0.000025530    0.000036892
     13        1          -0.000150042   -0.000031361    0.000058731
     14        8           0.001590037    0.005067574    0.016891457
     15        1          -0.000203009   -0.000049103   -0.000160544
     16        1           0.000152940   -0.000075616   -0.000189149
     17        8          -0.001478134    0.020491380    0.004979156
     18        1          -0.000161799   -0.000242252   -0.000157436
     19        1          -0.000146676   -0.000032199   -0.000220559
 -------------------------------------------------------------------
 Cartesian Forces:  Max     0.020491381 RMS     0.006192334

 GradGradGradGradGradGradGradGradGradGradGradGradGradGradGradGradGradGrad
 Berny optimization.
 Using GEDIIS/GDIIS optimizer.
 FormGI is forming the generalized inverse of G from B-inverse, IUseBI=4.
 Internal  Forces:  Max     0.020806022 RMS     0.004347571
 Search for a local minimum.
 Step number   2 out of a maximum of  114
 All quantities printed in internal units (Hartrees-Bohrs-Radians)
 Mixed Optimization -- En-DIIS/RFO-DIIS
 Swapping is turned off.
 Update second derivatives using D2CorX and points    1    2
 DE= -1.33D-04 DEPred=-1.09D-04 R= 1.23D+00
 TightC=F SS=  1.41D+00  RLast= 1.06D-01 DXNew= 5.0454D-01 3.1676D-01
 Trust test= 1.23D+00 RLast= 1.06D-01 DXMaxT set to 3.17D-01
 ITU=  1  0
     Eigenvalues ---    0.00215   0.00230   0.00230   0.00230   0.00230
     Eigenvalues ---    0.00231   0.00795   0.00797   0.01004   0.01058
     Eigenvalues ---    0.01062   0.01068   0.02444   0.03276   0.03548
     Eigenvalues ---    0.03898   0.06876   0.07518   0.10093   0.12778
     Eigenvalues ---    0.15707   0.16000   0.16000   0.16000   0.16000
     Eigenvalues ---    0.16000   0.16000   0.16000   0.16000   0.16000
     Eigenvalues ---    0.16000   0.16884   0.19365   0.53969   0.54047
     Eigenvalues ---    0.54230   0.54569   0.54595   0.54694   0.54746
     Eigenvalues ---    0.54839   0.54889   0.54939   0.55081   0.64170
     Eigenvalues --- 1000.000001000.000001000.000001000.000001000.00000
     Eigenvalues --- 1000.000001000.000001000.000001000.000001000.00000
[...]
    11  O    0.285906  -0.000003  -0.000029   0.000018  -0.000462  -0.000096
    12  H   -0.003576  -0.000017   0.000011   0.000001   0.000027   0.000000
    13  H    0.394645   0.000005   0.000004   0.000001   0.000008   0.000019
    14  O    0.000005   7.983991   0.270573   0.270242  -0.006186  -0.000456
    15  H    0.000004   0.270573   0.399333   0.001255   0.000275  -0.000118
    16  H    0.000001   0.270242   0.001255   0.406910   0.000155  -0.000051
    17  O    0.000008  -0.006186   0.000275   0.000155   7.905430   0.276965
    18  H    0.000019  -0.000456  -0.000118  -0.000051   0.276965   0.410887
    19  H    0.000041  -0.001686   0.001892   0.001322   0.269406   0.003586
              19
     1  Ni  -0.006119
     2  O   -0.000019
     3  H   -0.000072
     4  H    0.000058
     5  O   -0.000017
     6  H    0.000012
     7  H   -0.000016
     8  O    0.000024
     9  H    0.000001
    10  H    0.000003
    11  O    0.000117
    12  H   -0.000006
    13  H    0.000041
    14  O   -0.001686
    15  H    0.001892
    16  H    0.001322
    17  O    0.269406
    18  H    0.003586
    19  H    0.422030
          Atomic-Atomic Spin Densities.
               1          2          3          4          5          6
     1  Ni   1.951689  -0.003286   0.000070   0.000087  -0.003234   0.000021
     2  O   -0.003286   0.011667   0.000397   0.000287  -0.000037  -0.000011
     3  H    0.000070   0.000397  -0.000293   0.000110  -0.000005   0.000001
     4  H    0.000087   0.000287   0.000110  -0.000315  -0.000005   0.000001
     5  O   -0.003234  -0.000037  -0.000005  -0.000005   0.010217  -0.000049
     6  H    0.000021  -0.000011   0.000001   0.000001  -0.000049   0.000364
     7  H    0.000222  -0.000004   0.000001   0.000001   0.001466  -0.000166
     8  O   -0.004942  -0.000063  -0.000005  -0.000012  -0.000348  -0.000066
     9  H    0.000152   0.000004   0.000001   0.000004   0.000015   0.000016
    10  H    0.000516   0.000014   0.000001   0.000003   0.000182  -0.000001
    11  O   -0.003286   0.000025   0.000002   0.000002  -0.000273  -0.000020
    12  H    0.000070   0.000002   0.000000   0.000000   0.000038   0.000000
    13  H    0.000087   0.000002   0.000000   0.000000   0.000065   0.000007
    14  O   -0.003234  -0.000273   0.000038   0.000065   0.000019   0.000000
    15  H    0.000021  -0.000020   0.000000   0.000007   0.000000   0.000000
    16  H    0.000222   0.000132  -0.000052  -0.000048   0.000001   0.000000
    17  O   -0.004942  -0.000077   0.000013  -0.000003  -0.000048  -0.000006
    18  H    0.000152  -0.000010   0.000002   0.000002  -0.000014   0.000002
    19  H    0.000516   0.000062  -0.000015  -0.000001   0.000004   0.000001
               7          8          9         10         11         12
     1  Ni   0.000222  -0.004942   0.000152   0.000516  -0.003286   0.000070
     2  O   -0.000004  -0.000063   0.000004   0.000014   0.000025   0.000002
     3  H    0.000001  -0.000005   0.000001   0.000001   0.000002   0.000000
     4  H    0.000001  -0.000012   0.000004   0.000003   0.000002   0.000000
     5  O    0.001466  -0.000348   0.000015   0.000182  -0.000273   0.000038
     6  H   -0.000166  -0.000066   0.000016  -0.000001  -0.000020   0.000000
     7  H   -0.001158   0.000157  -0.000014  -0.000131   0.000132  -0.000052
     8  O    0.000157   0.017667   0.000683   0.002547  -0.000077   0.000013
     9  H   -0.000014   0.000683  -0.000002  -0.000438  -0.000010   0.000002
    10  H   -0.000131   0.002547  -0.000438  -0.001881   0.000062  -0.000015
    11  O    0.000132  -0.000077  -0.000010   0.000062   0.011667   0.000397
    12  H   -0.000052   0.000013   0.000002  -0.000015   0.000397  -0.000293
    13  H   -0.000048  -0.000003   0.000002  -0.000001   0.000287   0.000110
    14  O    0.000001  -0.000048  -0.000014   0.000004  -0.000037  -0.000005
    15  H    0.000000  -0.000006   0.000002   0.000001  -0.000011   0.000001
    16  H    0.000000   0.000004   0.000002  -0.000001  -0.000004   0.000001
    17  O    0.000004   0.000029   0.000002  -0.000004  -0.000063  -0.000005
    18  H    0.000002   0.000002   0.000000   0.000000   0.000004   0.000001
    19  H   -0.000001  -0.000004   0.000000   0.000000   0.000014   0.000001
              13         14         15         16         17         18
     1  Ni   0.000087  -0.003234   0.000021   0.000222  -0.004942   0.000152
     2  O    0.000002  -0.000273  -0.000020   0.000132  -0.000077  -0.000010
     3  H    0.000000   0.000038   0.000000  -0.000052   0.000013   0.000002
     4  H    0.000000   0.000065   0.000007  -0.000048  -0.000003   0.000002
     5  O    0.000065   0.000019   0.000000   0.000001  -0.000048  -0.000014
     6  H    0.000007   0.000000   0.000000   0.000000  -0.000006   0.000002
     7  H   -0.000048   0.000001   0.000000   0.000000   0.000004   0.000002
     8  O   -0.000003  -0.000048  -0.000006   0.000004   0.000029   0.000002
     9  H    0.000002  -0.000014   0.000002   0.000002   0.000002   0.000000
    10  H   -0.000001   0.000004   0.000001  -0.000001  -0.000004   0.000000
    11  O    0.000287  -0.000037  -0.000011  -0.000004  -0.000063   0.000004
    12  H    0.000110  -0.000005   0.000001   0.000001  -0.000005   0.000001
    13  H   -0.000315  -0.000005   0.000001   0.000001  -0.000012   0.000004
    14  O   -0.000005   0.010217  -0.000049   0.001466  -0.000348   0.000015
    15  H    0.000001  -0.000049   0.000364  -0.000166  -0.000066   0.000016
    16  H    0.000001   0.001466  -0.000166  -0.001158   0.000157  -0.000014
    17  O   -0.000012  -0.000348  -0.000066   0.000157   0.017667   0.000683
    18  H    0.000004   0.000015   0.000016  -0.000014   0.000683  -0.000002
    19  H    0.000003   0.000182  -0.000001  -0.000131   0.002547  -0.000438
              19
     1  Ni   0.000516
     2  O    0.000062
     3  H   -0.000015
     4  H   -0.000001
     5  O    0.000004
     6  H    0.000001
     7  H   -0.000001
     8  O   -0.000004
     9  H    0.000000
    10  H    0.000000
    11  O    0.000014
    12  H    0.000001
    13  H    0.000003
    14  O    0.000182
    15  H   -0.000001
    16  H   -0.000131
    17  O    0.002547
    18  H   -0.000438
    19  H   -0.001881
 Mulliken charges and spin densities:
               1          2
     1  Ni   1.438756   1.930901
     2  O   -0.558339   0.008812
     3  H    0.316860   0.000264
     4  H    0.323222   0.000183
     5  O   -0.559926   0.007994
     6  H    0.326337   0.000093
     7  H    0.319388   0.000412
     8  O   -0.508555   0.015528
     9  H    0.312190   0.000407
    10  H    0.309445   0.000857
    11  O   -0.558339   0.008812
    12  H    0.316860   0.000264
    13  H    0.323222   0.000183
    14  O   -0.559926   0.007994
    15  H    0.326337   0.000093
    16  H    0.319388   0.000412
    17  O   -0.508555   0.015528
    18  H    0.312190   0.000407
    19  H    0.309445   0.000857
 Sum of Mulliken charges =   2.00000   2.00000
 Mulliken charges and spin densities with hydrogens summed into heavy atoms:
               1          2
     1  Ni   1.438756   1.930901
     2  O    0.081744   0.009259
     5  O    0.085799   0.008498
     8  O    0.113080   0.016793
    11  O    0.081744   0.009259
    14  O    0.085799   0.008498
    17  O    0.113080   0.016793
 Electronic spatial extent (au):  <R**2>=           2371.4182
 Charge=              2.0000 electrons
 Dipole moment (field-independent basis, Debye):
    X=              0.0000    Y=              0.0000    Z=              0.0000  Tot=              0.0000
 Quadrupole moment (field-independent basis, Debye-Ang):
   XX=             -3.3653   YY=            -14.9393   ZZ=             -8.7957
   XY=              7.5318   XZ=             17.7723   YZ=              8.6021
 Traceless Quadrupole moment (field-independent basis, Debye-Ang):
   XX=              5.6681   YY=             -5.9058   ZZ=              0.2377
   XY=              7.5318   XZ=             17.7723   YZ=              8.6021
 Octapole moment (field-independent basis, Debye-Ang**2):
  XXX=              0.0000  YYY=              0.0000  ZZZ=              0.0000  XYY=              0.0000
  XXY=              0.0000  XXZ=              0.0000  XZZ=              0.0000  YZZ=              0.0000
  YYZ=              0.0000  XYZ=              0.0000
 Hexadecapole moment (field-independent basis, Debye-Ang**3):
 XXXX=            -76.0596 YYYY=           -244.1352 ZZZZ=           -256.2168 XXXY=             -0.3126
 XXXZ=            -19.7422 YYYX=             53.4623 YYYZ=           -142.0673 ZZZX=           -116.4117
 ZZZY=           -105.5051 XXYY=           -235.0161 XXZZ=           -205.8336 YYZZ=           -233.8247
 XXYZ=            -91.6068 YYXZ=            -30.6371 ZZXY=              6.8584
 N-N= 5.002112982436D+02 E-N=-5.653411718073D+03  KE= 1.962507358653D+03
                          Isotropic Fermi Contact Couplings
        Atom                 a.u.       MegaHertz       Gauss      10(-4) cm-1
     1  Ni(61)            -1.09509     219.08907      78.17642      73.08025
     2  O(17)              0.01065      -3.22890      -1.15215      -1.07705
     3  H(1)              -0.00008      -0.18388      -0.06561      -0.06134
     4  H(1)              -0.00008      -0.17403      -0.06210      -0.05805
     5  O(17)              0.00713      -2.16198      -0.77145      -0.72116
     6  H(1)              -0.00012      -0.26687      -0.09523      -0.08902
     7  H(1)              -0.00015      -0.33399      -0.11917      -0.11141
     8  O(17)              0.01352      -4.09905      -1.46264      -1.36730
     9  H(1)              -0.00012      -0.27308      -0.09744      -0.09109
    10  H(1)              -0.00025      -0.55487      -0.19799      -0.18509
    11  O(17)              0.01065      -3.22890      -1.15215      -1.07705
    12  H(1)              -0.00008      -0.18388      -0.06561      -0.06134
    13  H(1)              -0.00008      -0.17403      -0.06210      -0.05805
    14  O(17)              0.00713      -2.16199      -0.77145      -0.72116
    15  H(1)              -0.00012      -0.26687      -0.09523      -0.08902
    16  H(1)              -0.00015      -0.33398      -0.11917      -0.11141
    17  O(17)              0.01352      -4.09904      -1.46264      -1.36729
    18  H(1)              -0.00012      -0.27308      -0.09744      -0.09109
    19  H(1)              -0.00025      -0.55487      -0.19799      -0.18509
 --------------------------------------------------------
       Center         ----  Spin Dipole Couplings  ----
                      3XX-RR        3YY-RR        3ZZ-RR
 --------------------------------------------------------
     1   Atom       -0.045977     -0.053024      0.099001
     2   Atom        0.025057     -0.032449      0.007392
     3   Atom        0.009349     -0.004307     -0.005042
     4   Atom        0.008193     -0.003359     -0.004835
     5   Atom       -0.022104      0.006399      0.015705
     6   Atom       -0.005387     -0.005074      0.010461
     7   Atom        0.000012     -0.006363      0.006351
     8   Atom       -0.026627      0.043128     -0.016502
     9   Atom       -0.006539      0.011554     -0.005015
    10   Atom       -0.007621      0.006131      0.001490
    11   Atom        0.025057     -0.032449      0.007392
    12   Atom        0.009349     -0.004307     -0.005042
    13   Atom        0.008193     -0.003359     -0.004835
    14   Atom       -0.022104      0.006399      0.015705
    15   Atom       -0.005387     -0.005074      0.010461
    16   Atom        0.000012     -0.006363      0.006351
    17   Atom       -0.026627      0.043128     -0.016501
    18   Atom       -0.006539      0.011554     -0.005015
    19   Atom       -0.007621      0.006131      0.001490
 --------------------------------------------------------
                        XY            XZ            YZ
 --------------------------------------------------------
     1   Atom       -0.034834      0.271783      0.333991
     2   Atom        0.007109      0.044619      0.007170
     3   Atom        0.004712      0.002884     -0.000268
     4   Atom       -0.004238      0.005366     -0.000907
     5   Atom        0.020683      0.022040      0.039168
     6   Atom        0.000985      0.000035      0.002630
     7   Atom        0.001242      0.008110      0.004202
     8   Atom       -0.043601     -0.028713      0.055430
     9   Atom        0.001488     -0.001477     -0.000170
    10   Atom        0.000018      0.002916      0.008459
    11   Atom        0.007109      0.044619      0.007170
    12   Atom        0.004712      0.002884     -0.000268
    13   Atom       -0.004238      0.005366     -0.000907
    14   Atom        0.020683      0.022040      0.039168
    15   Atom        0.000985      0.000035      0.002630
    16   Atom        0.001242      0.008110      0.004202
    17   Atom       -0.043601     -0.028713      0.055430
    18   Atom        0.001488     -0.001477     -0.000170
    19   Atom        0.000018      0.002916      0.008459
 --------------------------------------------------------


 ---------------------------------------------------------------------------------
              Anisotropic Spin Dipole Couplings in Principal Axis System
 ---------------------------------------------------------------------------------

       Atom             a.u.   MegaHertz   Gauss  10(-4) cm-1        Axes

              Baa    -0.4329    20.678     7.378     6.897 -0.4958 -0.5986  0.6292
     1 Ni(61) Bbb    -0.0147     0.701     0.250     0.234  0.7743 -0.6328  0.0081
              Bcc     0.4476   -21.378    -7.628    -7.131  0.3933  0.4912  0.7772
 
              Baa    -0.0337     2.442     0.871     0.814  0.0623  0.9696 -0.2366
     2 O(17)  Bbb    -0.0290     2.100     0.749     0.701 -0.6378  0.2211  0.7378
              Bcc     0.0628    -4.542    -1.621    -1.515  0.7677  0.1049  0.6322
 
              Baa    -0.0067    -3.595    -1.283    -1.199 -0.3186  0.6893  0.6507
     3 H(1)   Bbb    -0.0045    -2.412    -0.861    -0.804  0.0723 -0.6668  0.7417
              Bcc     0.0113     6.007     2.143     2.004  0.9451  0.2833  0.1626
 
              Baa    -0.0069    -3.680    -1.313    -1.227 -0.3826 -0.2289  0.8951
     4 H(1)   Bbb    -0.0045    -2.388    -0.852    -0.797  0.1786  0.9322  0.3147
              Bcc     0.0114     6.068     2.165     2.024  0.9065 -0.2802  0.3158
 
              Baa    -0.0332     2.399     0.856     0.800  0.9283 -0.3430 -0.1438
     5 O(17)  Bbb    -0.0283     2.045     0.730     0.682  0.1503  0.6996 -0.6985
              Bcc     0.0614    -4.445    -1.586    -1.483  0.3402  0.6268  0.7010
 
              Baa    -0.0064    -3.423    -1.222    -1.142 -0.6853  0.7198 -0.1107
     6 H(1)   Bbb    -0.0045    -2.390    -0.853    -0.797  0.7282  0.6747 -0.1205
              Bcc     0.0109     5.814     2.075     1.939  0.0120  0.1632  0.9865
 
              Baa    -0.0080    -4.255    -1.518    -1.419  0.2886  0.8622 -0.4163
     7 H(1)   Bbb    -0.0048    -2.575    -0.919    -0.859  0.7921 -0.4592 -0.4021
              Bcc     0.0128     6.830     2.437     2.278  0.5379  0.2137  0.8155
 
              Baa    -0.0512     3.706     1.323     1.236  0.5584 -0.2130  0.8018
     8 O(17)  Bbb    -0.0469     3.390     1.210     1.131  0.7343  0.5766 -0.3583
              Bcc     0.0981    -7.097    -2.532    -2.367 -0.3859  0.7888  0.4783
 
              Baa    -0.0075    -4.009    -1.430    -1.337  0.8610 -0.0627  0.5046
     9 H(1)   Bbb    -0.0042    -2.224    -0.793    -0.742 -0.5017  0.0568  0.8631
              Bcc     0.0117     6.232     2.224     2.079  0.0828  0.9964 -0.0175
 
              Baa    -0.0091    -4.837    -1.726    -1.613  0.8694  0.2396 -0.4322
    10 H(1)   Bbb    -0.0037    -1.961    -0.700    -0.654  0.4861 -0.5713  0.6613
              Bcc     0.0127     6.798     2.426     2.267  0.0885  0.7850  0.6132
 
              Baa    -0.0337     2.442     0.871     0.814  0.0623  0.9696 -0.2366
    11 O(17)  Bbb    -0.0290     2.100     0.749     0.701 -0.6378  0.2211  0.7378
              Bcc     0.0628    -4.542    -1.621    -1.515  0.7677  0.1049  0.6322
 
              Baa    -0.0067    -3.595    -1.283    -1.199 -0.3186  0.6893  0.6507
    12 H(1)   Bbb    -0.0045    -2.412    -0.861    -0.804  0.0723 -0.6668  0.7418
              Bcc     0.0113     6.007     2.143     2.004  0.9451  0.2833  0.1626
 
              Baa    -0.0069    -3.680    -1.313    -1.227 -0.3826 -0.2289  0.8951
    13 H(1)   Bbb    -0.0045    -2.388    -0.852    -0.797  0.1786  0.9322  0.3147
              Bcc     0.0114     6.068     2.165     2.024  0.9065 -0.2802  0.3158
 
              Baa    -0.0332     2.399     0.856     0.800  0.9283 -0.3430 -0.1438
    14 O(17)  Bbb    -0.0283     2.045     0.730     0.682  0.1503  0.6996 -0.6985
              Bcc     0.0614    -4.445    -1.586    -1.483  0.3402  0.6268  0.7010
 
              Baa    -0.0064    -3.423    -1.222    -1.142 -0.6853  0.7198 -0.1107
    15 H(1)   Bbb    -0.0045    -2.390    -0.853    -0.797  0.7282  0.6747 -0.1205
              Bcc     0.0109     5.814     2.075     1.939  0.0120  0.1632  0.9865
 
              Baa    -0.0080    -4.255    -1.518    -1.419  0.2886  0.8622 -0.4163
    16 H(1)   Bbb    -0.0048    -2.575    -0.919    -0.859  0.7921 -0.4592 -0.4021
              Bcc     0.0128     6.830     2.437     2.278  0.5379  0.2137  0.8155
 
              Baa    -0.0512     3.706     1.323     1.236  0.5584 -0.2130  0.8018
    17 O(17)  Bbb    -0.0469     3.390     1.210     1.131  0.7343  0.5766 -0.3583
              Bcc     0.0981    -7.097    -2.532    -2.367 -0.3859  0.7888  0.4783
 
              Baa    -0.0075    -4.009    -1.430    -1.337  0.8610 -0.0627  0.5046
    18 H(1)   Bbb    -0.0042    -2.224    -0.793    -0.742 -0.5017  0.0568  0.8631
              Bcc     0.0117     6.232     2.224     2.079  0.0828  0.9964 -0.0175
 
              Baa    -0.0091    -4.837    -1.726    -1.613  0.8694  0.2396 -0.4322
    19 H(1)   Bbb    -0.0037    -1.961    -0.700    -0.654  0.4861 -0.5713  0.6613
              Bcc     0.0127     6.798     2.426     2.267  0.0885  0.7850  0.6132
 

 ---------------------------------------------------------------------------------

 1\1\GINC-MN8\FOpt\UM062X\6-311++G(2d,2p)\H12Ni1O6(2+,3)\DARAM_A\01-Sep
 -2015\0\\# opt=modredundant 6-311++g(2d,2p) geom=check m062x output=wf
 nx nosymm scf=(maxcycle=1000)\\Ni23_32\\2,3\Ni,0.0000001598,-0.0000001
 376,0.0000000941\O,-2.9763968506,-0.1227728746,-1.1687546123\H,-3.6024
 188987,-0.7799121744,-0.8416734106\H,-3.4783823163,0.6991398549,-1.228
 5195654\O,0.7667071539,1.0623122935,2.9195296312\H,0.3595619664,0.8508
 007342,3.7677217649\H,1.6973684184,0.812783873,2.9858378511\O,-0.23514
 35562,3.0433559659,0.9605681729\H,0.0585718675,3.8538795147,0.53059575
 54\H,0.1874368066,3.0068208331,1.827774539\O,2.976396879,0.1227721467,
 1.16875559\H,3.6024191756,0.7799110645,0.8416740955\H,3.4783820154,-0.
 6991407581,1.2285208759\O,-0.7667074649,-1.0623115434,-2.9195296503\H,
 -0.3595626667,-0.8507994949,-3.7677218489\H,-1.6973688296,-0.812783357
 7,-2.9858373757\O,0.235143931,-3.0433558312,-0.96056927\H,-0.058571114
 8,-3.8538796637,-0.5305971314\H,-0.1874366759,-3.0068204449,-1.8277755
 054\\Version=ES64L-G09RevD.01\HF=-1966.0619295\S2=2.003882\S2-1=0.\S2A
 =2.00001\RMSD=9.957e-09\RMSF=5.970e-03\Dipole=0.,-0.0000004,0.0000005\
 Quadrupole=4.2141291,-4.3908441,0.176715,5.599714,13.2133046,6.3954199
 \PG=C01 [X(H12Ni1O6)]\\@

 Writing a WFNX file to "Ni23_32.wfx"


 "ANNA, YOU MUSN'T SPEAK OF OXIDIZED MURIATIC ACID
 ANYMORE, FROM NOW ON YOU MUST SAY CHLORINE."
   -- JENS JACOB BERZELIUS, IN 1820, TO HIS COOK, WHO HAD
 COMPLAINED OF THE SMELL OF THE FLASK SHE WAS CLEANING.
 Job cpu time:       0 days 18 hours 18 minutes 16.8 seconds.
 File lengths (MBytes):  RWF=     93 Int=      0 D2E=      0 Chk=     12 Scr=      1
 Normal termination of Gaussian 09 at Tue Sep  1 20:04:39 2015.
