 Entering Gaussian System, Link 0=g09
 Input=Ni23_30.com
 Output=Ni23_30.log
 Initial command:
 /opt/SC/aplicaciones/g09-D.01/l1.exe "/tmpu/fercor_g/daram_a/Gau-27903.inp" -scrdir="/tmpu/fercor_g/daram_a/"
 Entering Link 1 = /opt/SC/aplicaciones/g09-D.01/l1.exe PID=     27904.
  
 Copyright (c) 1988,1990,1992,1993,1995,1998,2003,2009,2013,
            Gaussian, Inc.  All Rights Reserved.
  
 This is part of the Gaussian(R) 09 program.  It is based on
 the Gaussian(R) 03 system (copyright 2003, Gaussian, Inc.),
 the Gaussian(R) 98 system (copyright 1998, Gaussian, Inc.),
 the Gaussian(R) 94 system (copyright 1995, Gaussian, Inc.),
 the Gaussian 92(TM) system (copyright 1992, Gaussian, Inc.),
 the Gaussian 90(TM) system (copyright 1990, Gaussian, Inc.),
 the Gaussian 88(TM) system (copyright 1988, Gaussian, Inc.),
 the Gaussian 86(TM) system (copyright 1986, Carnegie Mellon
 University), and the Gaussian 82(TM) system (copyright 1983,
 Carnegie Mellon University). Gaussian is a federally registered
 trademark of Gaussian, Inc.
  
 This software contains proprietary and confidential information,
 including trade secrets, belonging to Gaussian, Inc.
  
 This software is provided under written license and may be
 used, copied, transmitted, or stored only in accord with that
 written license.
  
 The following legend is applicable only to US Government
 contracts under FAR:
  
                    RESTRICTED RIGHTS LEGEND
  
 Use, reproduction and disclosure by the US Government is
 subject to restrictions as set forth in subparagraphs (a)
 and (c) of the Commercial Computer Software - Restricted
 Rights clause in FAR 52.227-19.
  
 Gaussian, Inc.
 340 Quinnipiac St., Bldg. 40, Wallingford CT 06492
  
  
 ---------------------------------------------------------------
 Warning -- This program may not be used in any manner that
 competes with the business of Gaussian, Inc. or will provide
 assistance to any competitor of Gaussian, Inc.  The licensee
 of this program is prohibited from giving any competitor of
 Gaussian, Inc. access to this program.  By using this program,
 the user acknowledges that Gaussian, Inc. is engaged in the
 business of creating and licensing software in the field of
 computational chemistry and represents and warrants to the
 licensee that it is not a competitor of Gaussian, Inc. and that
 it will not use this program in any manner prohibited above.
 ---------------------------------------------------------------
  

 Cite this work as:
 Gaussian 09, Revision D.01,
 M. J. Frisch, G. W. Trucks, H. B. Schlegel, G. E. Scuseria, 
 M. A. Robb, J. R. Cheeseman, G. Scalmani, V. Barone, B. Mennucci, 
 G. A. Petersson, H. Nakatsuji, M. Caricato, X. Li, H. P. Hratchian, 
 A. F. Izmaylov, J. Bloino, G. Zheng, J. L. Sonnenberg, M. Hada, 
 M. Ehara, K. Toyota, R. Fukuda, J. Hasegawa, M. Ishida, T. Nakajima, 
 Y. Honda, O. Kitao, H. Nakai, T. Vreven, J. A. Montgomery, Jr., 
 J. E. Peralta, F. Ogliaro, M. Bearpark, J. J. Heyd, E. Brothers, 
 K. N. Kudin, V. N. Staroverov, T. Keith, R. Kobayashi, J. Normand, 
 K. Raghavachari, A. Rendell, J. C. Burant, S. S. Iyengar, J. Tomasi, 
 M. Cossi, N. Rega, J. M. Millam, M. Klene, J. E. Knox, J. B. Cross, 
 V. Bakken, C. Adamo, J. Jaramillo, R. Gomperts, R. E. Stratmann, 
 O. Yazyev, A. J. Austin, R. Cammi, C. Pomelli, J. W. Ochterski, 
 R. L. Martin, K. Morokuma, V. G. Zakrzewski, G. A. Voth, 
 P. Salvador, J. J. Dannenberg, S. Dapprich, A. D. Daniels, 
 O. Farkas, J. B. Foresman, J. V. Ortiz, J. Cioslowski, 
 and D. J. Fox, Gaussian, Inc., Wallingford CT, 2013.
 
 ******************************************
 Gaussian 09:  ES64L-G09RevD.01 24-Apr-2013
                 1-Sep-2015 
 ******************************************
 %nprocshared=16
 Will use up to   16 processors via shared memory.
 %mem=32GB
 %chk=Ni23_30.chk
 ----------------------------------------------------------------------
 # opt=modredundant 6-311++g(2d,2p) geom=connectivity m062x output=wfnx
 ----------------------------------------------------------------------
 1/14=-1,18=120,19=15,26=3,38=1,57=2/1,3;
 2/9=110,12=2,17=6,18=5,40=1/2;
 3/5=4,6=6,7=1212,11=2,16=1,25=1,30=1,71=1,74=-55/1,2,3;
 4//1;
 5/5=2,38=5/2;
 6/7=2,8=2,9=2,10=2,28=1/1;
 7//1,2,3,16;
 1/14=-1,18=20,19=15,26=3/3(2);
 2/9=110/2;
 99/6=200/99;
 2/9=110/2;
 3/5=4,6=6,7=1212,11=2,16=1,25=1,30=1,71=1,74=-55/1,2,3;
 4/5=5,16=3,69=1/1;
 5/5=2,38=5/2;
 7//1,2,3,16;
 1/14=-1,18=20,19=15,26=3/3(-5);
 2/9=110/2;
 6/7=2,8=2,9=2,10=2,19=2,28=1/1;
 99/6=200,9=1/99;
 -------
 Ni23_30
 -------
 Symbolic Z-matrix:
 Charge =  2 Multiplicity = 3
 Ni                    0.        0.        0. 
 O                    -2.9999    0.01821   0.01634 
 H                    -3.57257  -0.757     0.01345 
 H                    -3.56034   0.80191   0.04325 
 O                     0.02426  -0.02547   2.99979 
 H                    -0.7495   -0.03994   3.57423 
 H                     0.80959  -0.0511    3.55802 
 O                     0.01209   2.99972   0.0391 
 H                     0.01206   3.58012  -0.73031 
 H                     0.0303    3.55234   0.82862 
 O                     2.9999   -0.01821  -0.01634 
 H                     3.57257   0.757    -0.01345 
 H                     3.56034  -0.80191  -0.04325 
 O                    -0.02426   0.02547  -2.99979 
 H                     0.7495    0.03994  -3.57423 
 H                    -0.80959   0.0511   -3.55802 
 O                    -0.01209  -2.99972  -0.0391 
 H                    -0.01206  -3.58012   0.73031 
 H                    -0.0303   -3.55234  -0.82862 
 
 Add virtual bond connecting atoms O2         and Ni1        Dist= 5.67D+00.
 Add virtual bond connecting atoms O11        and Ni1        Dist= 5.67D+00.
 Add virtual bond connecting atoms O5         and Ni1        Dist= 5.67D+00.
 Add virtual bond connecting atoms O14        and Ni1        Dist= 5.67D+00.
 Add virtual bond connecting atoms O8         and Ni1        Dist= 5.67D+00.
 Add virtual bond connecting atoms O17        and Ni1        Dist= 5.67D+00.
 The following ModRedundant input section has been read:
 B       1       8 F                                                           
 B       1      14 F                                                           
 B       1      11 F                                                           
 B       1       2 F                                                           
 B       1       5 F                                                           
 B       1      17 F                                                           
 

 GradGradGradGradGradGradGradGradGradGradGradGradGradGradGradGradGradGrad
 Berny optimization.
 Initialization pass.
                           ----------------------------
                           !    Initial Parameters    !
                           ! (Angstroms and Degrees)  !
 --------------------------                            --------------------------
 ! Name  Definition              Value          Derivative Info.                !
 --------------------------------------------------------------------------------
 ! R1    R(1,2)                  3.0            Frozen                          !
 ! R2    R(1,5)                  3.0            Frozen                          !
 ! R3    R(1,8)                  3.0            Frozen                          !
 ! R4    R(1,11)                 3.0            Frozen                          !
 ! R5    R(1,14)                 3.0            Frozen                          !
 ! R6    R(1,17)                 3.0            Frozen                          !
 ! R7    R(2,3)                  0.9638         estimate D2E/DX2                !
 ! R8    R(2,4)                  0.9638         estimate D2E/DX2                !
 ! R9    R(5,6)                  0.9638         estimate D2E/DX2                !
 ! R10   R(5,7)                  0.9639         estimate D2E/DX2                !
 ! R11   R(8,9)                  0.9638         estimate D2E/DX2                !
 ! R12   R(8,10)                 0.9639         estimate D2E/DX2                !
 ! R13   R(11,12)                0.9638         estimate D2E/DX2                !
 ! R14   R(11,13)                0.9638         estimate D2E/DX2                !
 ! R15   R(14,15)                0.9638         estimate D2E/DX2                !
 ! R16   R(14,16)                0.9639         estimate D2E/DX2                !
 ! R17   R(17,18)                0.9638         estimate D2E/DX2                !
 ! R18   R(17,19)                0.9639         estimate D2E/DX2                !
 ! A1    A(2,1,5)               90.1543         estimate D2E/DX2                !
 ! A2    A(2,1,8)               89.879          estimate D2E/DX2                !
 ! A3    A(2,1,14)              89.8457         estimate D2E/DX2                !
 ! A4    A(2,1,17)              90.121          estimate D2E/DX2                !
 ! A5    A(5,1,8)               89.7379         estimate D2E/DX2                !
 ! A6    A(5,1,11)              89.8457         estimate D2E/DX2                !
 ! A7    A(5,1,17)              90.2621         estimate D2E/DX2                !
 ! A8    A(8,1,11)              90.121          estimate D2E/DX2                !
 ! A9    A(8,1,14)              90.2621         estimate D2E/DX2                !
 ! A10   A(11,1,14)             90.1543         estimate D2E/DX2                !
 ! A11   A(11,1,17)             89.879          estimate D2E/DX2                !
 ! A12   A(14,1,17)             89.7379         estimate D2E/DX2                !
 ! A13   A(1,2,3)              126.1044         estimate D2E/DX2                !
 ! A14   A(1,2,4)              125.9115         estimate D2E/DX2                !
 ! A15   A(3,2,4)              107.9738         estimate D2E/DX2                !
 ! A16   A(1,5,6)              126.1297         estimate D2E/DX2                !
 ! A17   A(1,5,7)              125.8691         estimate D2E/DX2                !
 ! A18   A(6,5,7)              107.9711         estimate D2E/DX2                !
 ! A19   A(1,8,9)              126.2818         estimate D2E/DX2                !
 ! A20   A(1,8,10)             125.734          estimate D2E/DX2                !
 ! A21   A(9,8,10)             107.9782         estimate D2E/DX2                !
 ! A22   A(1,11,12)            126.1044         estimate D2E/DX2                !
 ! A23   A(1,11,13)            125.9115         estimate D2E/DX2                !
 ! A24   A(12,11,13)           107.9738         estimate D2E/DX2                !
 ! A25   A(1,14,15)            126.1297         estimate D2E/DX2                !
 ! A26   A(1,14,16)            125.8691         estimate D2E/DX2                !
 ! A27   A(15,14,16)           107.9711         estimate D2E/DX2                !
 ! A28   A(1,17,18)            126.2818         estimate D2E/DX2                !
 ! A29   A(1,17,19)            125.734          estimate D2E/DX2                !
 ! A30   A(18,17,19)           107.9782         estimate D2E/DX2                !
 ! A31   L(2,1,11,5,-1)        180.0            estimate D2E/DX2                !
 ! A32   L(5,1,14,2,-1)        180.0            estimate D2E/DX2                !
 ! A33   L(8,1,17,2,-1)        180.0            estimate D2E/DX2                !
 ! A34   L(2,1,11,5,-2)        180.0            estimate D2E/DX2                !
 ! A35   L(5,1,14,2,-2)        180.0            estimate D2E/DX2                !
 ! A36   L(8,1,17,2,-2)        180.0            estimate D2E/DX2                !
 ! D1    D(5,1,2,3)            -89.9559         estimate D2E/DX2                !
 ! D2    D(5,1,2,4)             88.7341         estimate D2E/DX2                !
 ! D3    D(8,1,2,3)           -179.6935         estimate D2E/DX2                !
 ! D4    D(8,1,2,4)             -1.0035         estimate D2E/DX2                !
 ! D5    D(14,1,2,3)            90.0441         estimate D2E/DX2                !
 ! D6    D(14,1,2,4)           -91.2659         estimate D2E/DX2                !
 ! D7    D(17,1,2,3)             0.3065         estimate D2E/DX2                !
 ! D8    D(17,1,2,4)           178.9965         estimate D2E/DX2                !
 ! D9    D(3,2,11,12)          180.0            estimate D2E/DX2                !
 ! D10   D(3,2,11,13)            1.31           estimate D2E/DX2                !
 ! D11   D(4,2,11,12)           -1.31           estimate D2E/DX2                !
 ! D12   D(4,2,11,13)          180.0            estimate D2E/DX2                !
 ! D13   D(2,1,5,6)              1.0568         estimate D2E/DX2                !
 ! D14   D(2,1,5,7)            178.8179         estimate D2E/DX2                !
 ! D15   D(8,1,5,6)             90.9351         estimate D2E/DX2                !
 ! D16   D(8,1,5,7)            -91.3038         estimate D2E/DX2                !
 ! D17   D(11,1,5,6)          -178.9432         estimate D2E/DX2                !
 ! D18   D(11,1,5,7)            -1.1821         estimate D2E/DX2                !
 ! D19   D(17,1,5,6)           -89.0649         estimate D2E/DX2                !
 ! D20   D(17,1,5,7)            88.6962         estimate D2E/DX2                !
 ! D21   D(6,5,14,15)          180.0            estimate D2E/DX2                !
 ! D22   D(6,5,14,16)            2.2388         estimate D2E/DX2                !
 ! D23   D(7,5,14,15)           -2.2388         estimate D2E/DX2                !
 ! D24   D(7,5,14,16)          180.0            estimate D2E/DX2                !
 ! D25   D(2,1,8,9)            -90.1358         estimate D2E/DX2                !
 ! D26   D(2,1,8,10)            90.8598         estimate D2E/DX2                !
 ! D27   D(5,1,8,9)            179.7093         estimate D2E/DX2                !
 ! D28   D(5,1,8,10)             0.7049         estimate D2E/DX2                !
 ! D29   D(11,1,8,9)            89.8642         estimate D2E/DX2                !
 ! D30   D(11,1,8,10)          -89.1402         estimate D2E/DX2                !
 ! D31   D(14,1,8,9)            -0.2907         estimate D2E/DX2                !
 ! D32   D(14,1,8,10)         -179.2951         estimate D2E/DX2                !
 ! D33   D(9,8,17,18)          180.0            estimate D2E/DX2                !
 ! D34   D(9,8,17,19)           -0.9956         estimate D2E/DX2                !
 ! D35   D(10,8,17,18)           0.9956         estimate D2E/DX2                !
 ! D36   D(10,8,17,19)         180.0            estimate D2E/DX2                !
 ! D37   D(5,1,11,12)          -90.0441         estimate D2E/DX2                !
 ! D38   D(5,1,11,13)           91.2659         estimate D2E/DX2                !
 ! D39   D(8,1,11,12)           -0.3065         estimate D2E/DX2                !
 ! D40   D(8,1,11,13)         -178.9965         estimate D2E/DX2                !
 ! D41   D(14,1,11,12)          89.9559         estimate D2E/DX2                !
 ! D42   D(14,1,11,13)         -88.7341         estimate D2E/DX2                !
 ! D43   D(17,1,11,12)         179.6935         estimate D2E/DX2                !
 ! D44   D(17,1,11,13)           1.0035         estimate D2E/DX2                !
 ! D45   D(2,1,14,15)          178.9432         estimate D2E/DX2                !
 ! D46   D(2,1,14,16)            1.1821         estimate D2E/DX2                !
 ! D47   D(8,1,14,15)           89.0649         estimate D2E/DX2                !
 ! D48   D(8,1,14,16)          -88.6962         estimate D2E/DX2                !
 ! D49   D(11,1,14,15)          -1.0568         estimate D2E/DX2                !
 ! D50   D(11,1,14,16)        -178.8179         estimate D2E/DX2                !
 ! D51   D(17,1,14,15)         -90.9351         estimate D2E/DX2                !
 ! D52   D(17,1,14,16)          91.3038         estimate D2E/DX2                !
 ! D53   D(2,1,17,18)          -89.8642         estimate D2E/DX2                !
 ! D54   D(2,1,17,19)           89.1402         estimate D2E/DX2                !
 ! D55   D(5,1,17,18)            0.2907         estimate D2E/DX2                !
 ! D56   D(5,1,17,19)          179.2951         estimate D2E/DX2                !
 ! D57   D(11,1,17,18)          90.1358         estimate D2E/DX2                !
 ! D58   D(11,1,17,19)         -90.8598         estimate D2E/DX2                !
 ! D59   D(14,1,17,18)        -179.7093         estimate D2E/DX2                !
 ! D60   D(14,1,17,19)          -0.7049         estimate D2E/DX2                !
 --------------------------------------------------------------------------------
 Trust Radius=3.00D-01 FncErr=1.00D-07 GrdErr=1.00D-06
 Number of steps in this run=    114 maximum allowed number of steps=    114.
 GradGradGradGradGradGradGradGradGradGradGradGradGradGradGradGradGradGrad

                          Input orientation:                          
 ---------------------------------------------------------------------
 Center     Atomic      Atomic             Coordinates (Angstroms)
 Number     Number       Type             X           Y           Z
 ---------------------------------------------------------------------
      1         28           0        0.000000    0.000000    0.000000
      2          8           0       -2.999900    0.018214    0.016336
      3          1           0       -3.572571   -0.757001    0.013455
      4          1           0       -3.560341    0.801906    0.043247
      5          8           0        0.024261   -0.025469    2.999794
      6          1           0       -0.749498   -0.039942    3.574234
      7          1           0        0.809589   -0.051099    3.558019
      8          8           0        0.012091    2.999721    0.039095
      9          1           0        0.012062    3.580116   -0.730308
     10          1           0        0.030298    3.552336    0.828615
     11          8           0        2.999900   -0.018214   -0.016336
     12          1           0        3.572571    0.757001   -0.013455
     13          1           0        3.560341   -0.801906   -0.043247
     14          8           0       -0.024261    0.025469   -2.999794
     15          1           0        0.749498    0.039942   -3.574234
     16          1           0       -0.809589    0.051099   -3.558019
     17          8           0       -0.012091   -2.999721   -0.039095
     18          1           0       -0.012062   -3.580116    0.730308
     19          1           0       -0.030298   -3.552336   -0.828615
 ---------------------------------------------------------------------
                    Distance matrix (angstroms):
                    1          2          3          4          5
     1  Ni   0.000000
     2  O    3.000000   0.000000
     3  H    3.651917   0.963804   0.000000
     4  H    3.649788   0.963842   1.559240   0.000000
     5  O    3.000000   4.248350   4.731867   4.719650   0.000000
     6  H    3.652190   4.210265   4.600333   4.591015   0.963791
     7  H    3.649321   5.201974   5.680278   5.672524   0.963853
     8  O    3.000000   4.238159   5.192631   4.194363   4.232926
     9  H    3.653864   4.724038   5.675682   4.591176   5.187876
    10  H    3.647823   4.725666   5.675873   4.590682   4.185062
    11  O    3.000000   6.000000   6.613930   6.611574   4.236923
    12  H    3.651917   6.613930   7.303834   7.133279   4.720427
    13  H    3.649788   6.611574   7.133279   7.299576   4.729356
    14  O    3.000000   4.236923   4.720427   4.729356   6.000000
    15  H    3.652190   5.191401   5.673351   5.678157   6.614234
    16  H    3.649321   4.192202   4.587213   4.593415   6.611057
    17  O    3.000000   4.247118   4.208275   5.200887   4.252333
    18  H    3.653864   4.731270   4.600118   5.680181   4.217511
    19  H    3.647823   4.720308   4.590281   5.672810   5.205620
                    6          7          8          9         10
     6  H    0.000000
     7  H    1.559211   0.000000
     8  O    4.724063   4.725075   0.000000
     9  H    5.675727   5.675519   0.963763   0.000000
    10  H    4.588133   4.587122   0.963876   1.559277   0.000000
    11  O    5.191401   4.192202   4.247118   4.731270   4.720308
    12  H    5.673351   4.587213   4.208275   4.600118   4.590281
    13  H    5.678157   4.593415   5.200887   5.680181   5.672810
    14  O    6.614234   6.611057   4.252333   4.217511   5.205620
    15  H    7.304379   7.133087   4.728658   4.600495   5.677960
    16  H    7.133087   7.298642   4.723214   4.596196   5.675088
    17  O    4.728658   4.723214   6.000000   6.616087   6.609400
    18  H    4.600495   4.596196   6.616087   7.307729   7.133255
    19  H    5.677960   5.675088   6.609400   7.133255   7.295646
                   11         12         13         14         15
    11  O    0.000000
    12  H    0.963804   0.000000
    13  H    0.963842   1.559240   0.000000
    14  O    4.248350   4.731867   4.719650   0.000000
    15  H    4.210265   4.600333   4.591015   0.963791   0.000000
    16  H    5.201974   5.680278   5.672524   0.963853   1.559211
    17  O    4.238159   5.192631   4.194363   4.232926   4.724063
    18  H    4.724038   5.675682   4.591176   5.187876   5.675727
    19  H    4.725666   5.675873   4.590682   4.185062   4.588133
                   16         17         18         19
    16  H    0.000000
    17  O    4.725075   0.000000
    18  H    5.675519   0.963763   0.000000
    19  H    4.587122   0.963876   1.559277   0.000000
 Stoichiometry    H12NiO6(2+,3)
 Framework group  CI[O(Ni),X(H12O6)]
 Deg. of freedom    24
 Full point group                 CI      NOp   2
 Largest Abelian subgroup         CI      NOp   2
 Largest concise Abelian subgroup CI      NOp   2
                         Standard orientation:                         
 ---------------------------------------------------------------------
 Center     Atomic      Atomic             Coordinates (Angstroms)
 Number     Number       Type             X           Y           Z
 ---------------------------------------------------------------------
      1         28           0        0.000000    0.000000    0.000000
      2          8           0       -2.999900    0.018214    0.016336
      3          1           0       -3.572571   -0.757001    0.013455
      4          1           0       -3.560341    0.801906    0.043247
      5          8           0        0.024261   -0.025469    2.999794
      6          1           0       -0.749498   -0.039942    3.574234
      7          1           0        0.809589   -0.051099    3.558019
      8          8           0        0.012091    2.999721    0.039095
      9          1           0        0.012062    3.580116   -0.730308
     10          1           0        0.030298    3.552336    0.828615
     11          8           0        2.999900   -0.018214   -0.016336
     12          1           0        3.572571    0.757001   -0.013455
     13          1           0        3.560341   -0.801906   -0.043247
     14          8           0       -0.024261    0.025469   -2.999794
     15          1           0        0.749498    0.039942   -3.574234
     16          1           0       -0.809589    0.051099   -3.558019
     17          8           0       -0.012091   -2.999721   -0.039095
     18          1           0       -0.012062   -3.580116    0.730308
     19          1           0       -0.030298   -3.552336   -0.828615
 ---------------------------------------------------------------------
 Rotational constants (GHZ):      0.7411455      0.7402080      0.7375692
 Standard basis: 6-311++G(2d,2p) (5D, 7F)
 There are   181 symmetry adapted cartesian basis functions of AG  symmetry.
 There are   188 symmetry adapted cartesian basis functions of AU  symmetry.
 There are   171 symmetry adapted basis functions of AG  symmetry.
 There are   176 symmetry adapted basis functions of AU  symmetry.
   347 basis functions,   500 primitive gaussians,   369 cartesian basis functions
    44 alpha electrons       42 beta electrons
       nuclear repulsion energy       510.1774570757 Hartrees.
 NAtoms=   19 NActive=   19 NUniq=   10 SFac= 3.61D+00 NAtFMM=   60 NAOKFM=F Big=F
 Integral buffers will be    131072 words long.
 Raffenetti 2 integral format.
 Two-electron integral symmetry is turned on.
 One-electron integrals computed using PRISM.
 NBasis=   347 RedAO= T EigKep=  8.70D-04  NBF=   171   176
 NBsUse=   347 1.00D-06 EigRej= -1.00D+00 NBFU=   171   176
 ExpMin= 1.39D-02 ExpMax= 2.85D+05 ExpMxC= 9.63D+03 IAcc=3 IRadAn=         5 AccDes= 0.00D+00
 Harris functional with IExCor= 1009 and IRadAn=       5 diagonalized for initial guess.
 HarFok:  IExCor= 1009 AccDes= 0.00D+00 IRadAn=         5 IDoV= 1 UseB2=F ITyADJ=14
 ICtDFT=  3500011 ScaDFX=  1.000000  1.000000  1.000000  1.000000
 FoFCou: FMM=F IPFlag=           0 FMFlag=      100000 FMFlg1=           0
         NFxFlg=           0 DoJE=T BraDBF=F KetDBF=T FulRan=T
         wScrn=  0.000000 ICntrl=     500 IOpCl=  0 I1Cent=   200000004 NGrid=           0
         NMat0=    1 NMatS0=      1 NMatT0=    0 NMatD0=    1 NMtDS0=    0 NMtDT0=    0
 Petite list used in FoFCou.
 Initial guess orbital symmetries:
 Alpha Orbitals:
       Occupied  (AG) (AG) (AU) (AU) (AU) (AG) (AU) (AU) (AU) (AG)
                 (AG) (AG) (AU) (AU) (AU) (AG) (AU) (AU) (AU) (AG)
                 (AG) (AU) (AG) (AU) (AG) (AU) (AG) (AG) (AU) (AU)
                 (AU) (AG) (AG) (AG) (AU) (AG) (AG) (AU) (AU) (AG)
                 (AG) (AG) (AG) (AG)
       Virtual   (AG) (AU) (AU) (AU) (AG) (AG) (AG) (AU) (AG) (AG)
                 (AU) (AG) (AU) (AU) (AU) (AU) (AG) (AG) (AG) (AG)
                 (AG) (AG) (AU) (AU) (AU) (AU) (AU) (AU) (AG) (AU)
                 (AU) (AU) (AG) (AG) (AG) (AG) (AG) (AG) (AU) (AU)
                 (AU) (AG) (AG) (AG) (AU) (AU) (AU) (AG) (AG) (AG)
                 (AU) (AU) (AU) (AU) (AU) (AU) (AG) (AG) (AG) (AG)
                 (AG) (AG) (AG) (AG) (AG) (AG) (AG) (AU) (AU) (AU)
                 (AU) (AU) (AU) (AG) (AU) (AU) (AU) (AG) (AG) (AG)
                 (AU) (AU) (AU) (AG) (AG) (AG) (AG) (AG) (AG) (AU)
                 (AU) (AU) (AU) (AU) (AU) (AG) (AG) (AG) (AU) (AU)
                 (AU) (AU) (AU) (AU) (AG) (AG) (AG) (AG) (AU) (AU)
                 (AU) (AG) (AG) (AG) (AG) (AG) (AG) (AG) (AG) (AU)
                 (AU) (AU) (AG) (AG) (AG) (AU) (AU) (AU) (AG) (AG)
                 (AU) (AU) (AU) (AG) (AG) (AG) (AG) (AU) (AU) (AU)
                 (AG) (AG) (AG) (AU) (AU) (AU) (AG) (AG) (AG) (AU)
                 (AU) (AU) (AG) (AG) (AU) (AU) (AU) (AG) (AU) (AU)
                 (AU) (AU) (AG) (AG) (AU) (AU) (AU) (AG) (AG) (AG)
                 (AU) (AU) (AU) (AG) (AG) (AG) (AU) (AU) (AU) (AG)
                 (AG) (AU) (AU) (AU) (AG) (AG) (AG) (AG) (AU) (AU)
                 (AU) (AG) (AU) (AU) (AU) (AG) (AG) (AG) (AG) (AG)
                 (AG) (AU) (AU) (AU) (AG) (AG) (AG) (AU) (AU) (AU)
                 (AU) (AU) (AU) (AG) (AG) (AG) (AU) (AU) (AU) (AG)
                 (AG) (AG) (AG) (AG) (AU) (AU) (AU) (AG) (AU) (AU)
                 (AU) (AG) (AG) (AG) (AG) (AU) (AU) (AU) (AG) (AG)
                 (AG) (AU) (AU) (AU) (AG) (AG) (AG) (AG) (AG) (AU)
                 (AU) (AU) (AG) (AG) (AG) (AU) (AU) (AU) (AG) (AG)
                 (AG) (AG) (AG) (AU) (AU) (AU) (AG) (AG) (AG) (AU)
                 (AU) (AU) (AG) (AG) (AG) (AU) (AU) (AU) (AU) (AU)
                 (AU) (AU) (AG) (AG) (AG) (AU) (AU) (AU) (AU) (AU)
                 (AU) (AG) (AU) (AU) (AU) (AG) (AG) (AU) (AU) (AU)
                 (AG) (AG) (AG)
 Beta  Orbitals:
       Occupied  (AG) (AG) (AU) (AU) (AU) (AG) (AU) (AU) (AU) (AG)
                 (AG) (AG) (AU) (AU) (AU) (AG) (AU) (AU) (AU) (AG)
                 (AG) (AU) (AG) (AU) (AG) (AU) (AG) (AG) (AU) (AU)
                 (AU) (AG) (AG) (AG) (AU) (AG) (AG) (AU) (AU) (AG)
                 (AG) (AG)
       Virtual   (AG) (AG) (AG) (AU) (AU) (AU) (AG) (AG) (AG) (AU)
                 (AG) (AG) (AU) (AG) (AU) (AU) (AU) (AU) (AG) (AG)
                 (AG) (AG) (AG) (AG) (AU) (AU) (AU) (AU) (AU) (AU)
                 (AG) (AU) (AU) (AU) (AG) (AG) (AG) (AG) (AG) (AG)
                 (AU) (AU) (AU) (AG) (AG) (AG) (AU) (AU) (AU) (AG)
                 (AG) (AG) (AU) (AU) (AU) (AU) (AU) (AU) (AG) (AG)
                 (AG) (AG) (AG) (AG) (AG) (AG) (AG) (AG) (AG) (AU)
                 (AU) (AU) (AU) (AU) (AU) (AG) (AU) (AU) (AU) (AG)
                 (AG) (AG) (AU) (AU) (AU) (AG) (AG) (AG) (AG) (AG)
                 (AG) (AU) (AU) (AU) (AU) (AU) (AU) (AG) (AG) (AG)
                 (AU) (AU) (AU) (AU) (AU) (AU) (AG) (AG) (AG) (AG)
                 (AU) (AU) (AU) (AG) (AG) (AG) (AG) (AG) (AG) (AG)
                 (AG) (AU) (AU) (AU) (AG) (AG) (AG) (AU) (AU) (AU)
                 (AG) (AG) (AU) (AU) (AU) (AG) (AG) (AG) (AG) (AU)
                 (AU) (AU) (AG) (AG) (AG) (AU) (AU) (AU) (AG) (AG)
                 (AG) (AU) (AU) (AU) (AG) (AG) (AU) (AU) (AU) (AG)
                 (AU) (AU) (AU) (AU) (AG) (AG) (AU) (AU) (AU) (AG)
                 (AG) (AG) (AU) (AU) (AU) (AG) (AG) (AG) (AU) (AU)
                 (AU) (AG) (AG) (AU) (AU) (AU) (AG) (AG) (AG) (AG)
                 (AU) (AU) (AU) (AG) (AU) (AU) (AU) (AG) (AG) (AG)
                 (AG) (AG) (AG) (AU) (AU) (AU) (AG) (AG) (AG) (AU)
                 (AU) (AU) (AU) (AU) (AU) (AG) (AG) (AG) (AU) (AU)
                 (AU) (AG) (AG) (AG) (AG) (AG) (AU) (AU) (AU) (AG)
                 (AU) (AU) (AU) (AG) (AG) (AG) (AG) (AU) (AU) (AU)
                 (AG) (AG) (AG) (AU) (AU) (AU) (AG) (AG) (AG) (AG)
                 (AG) (AU) (AU) (AU) (AG) (AG) (AG) (AU) (AU) (AU)
                 (AG) (AG) (AG) (AG) (AG) (AU) (AU) (AU) (AG) (AG)
                 (AG) (AU) (AU) (AU) (AG) (AG) (AG) (AU) (AU) (AU)
                 (AU) (AU) (AU) (AU) (AG) (AG) (AG) (AU) (AU) (AU)
                 (AU) (AU) (AU) (AG) (AU) (AU) (AU) (AG) (AG) (AU)
                 (AU) (AU) (AG) (AG) (AG)
 The electronic state of the initial guess is 3-AG.
 Initial guess <Sx>= 0.0000 <Sy>= 0.0000 <Sz>= 1.0000 <S**2>= 2.0000 S= 1.0000
 Keep R1 and R2 ints in memory in symmetry-blocked form, NReq=2734803760.
 Requested convergence on RMS density matrix=1.00D-08 within 128 cycles.
 Requested convergence on MAX density matrix=1.00D-06.
 Requested convergence on             energy=1.00D-06.
 No special actions if energy rises.
 DSYEVD-2 returned Info=         221 IAlg= 4 N=   176 NDim=   347 NE2=     7122309 trying  DSYEV.
 SCF Done:  E(UM062X) =  -1966.10563887     A.U. after   23 cycles
            NFock= 23  Conv=0.23D-08     -V/T= 2.0019
 <Sx>= 0.0000 <Sy>= 0.0000 <Sz>= 1.0000 <S**2>= 2.0033 S= 1.0011
 <L.S>= 0.000000000000E+00
 Annihilation of the first spin contaminant:
 S**2 before annihilation     2.0033,   after     2.0000

 **********************************************************************

            Population analysis using the SCF density.

 **********************************************************************

 Orbital symmetries:
 Alpha Orbitals:
       Occupied  (AG) (AG) (AU) (AU) (AU) (AU) (AG) (AU) (AG) (AU)
                 (AG) (AG) (AU) (AU) (AU) (AG) (AU) (AU) (AU) (AG)
                 (AG) (AG) (AG) (AG) (AG) (AG) (AU) (AU) (AU) (AG)
                 (AG) (AG) (AG) (AU) (AU) (AU) (AG) (AG) (AU) (AU)
                 (AG) (AU) (AG) (AG)
       Virtual   (AG) (AU) (AU) (AU) (AG) (AU) (AU) (AU) (AG) (AG)
                 (AG) (AG) (AG) (AU) (AU) (AU) (AG) (AG) (AG) (AG)
                 (AU) (AU) (AU) (AG) (AG) (AG) (AU) (AU) (AU) (AU)
                 (AU) (AU) (AG) (AG) (AG) (AG) (AG) (AU) (AU) (AU)
                 (AG) (AG) (AG) (AG) (AU) (AU) (AU) (AG) (AG) (AG)
                 (AU) (AU) (AU) (AG) (AG) (AG) (AG) (AG) (AU) (AU)
                 (AU) (AG) (AG) (AG) (AG) (AG) (AG) (AU) (AU) (AU)
                 (AU) (AU) (AU) (AG) (AU) (AU) (AU) (AG) (AG) (AG)
                 (AU) (AU) (AU) (AG) (AG) (AG) (AG) (AG) (AG) (AU)
                 (AU) (AU) (AU) (AU) (AU) (AG) (AG) (AG) (AU) (AU)
                 (AU) (AU) (AU) (AU) (AG) (AG) (AG) (AG) (AG) (AG)
                 (AU) (AU) (AU) (AG) (AG) (AG) (AG) (AG) (AG) (AU)
                 (AU) (AU) (AG) (AG) (AG) (AU) (AU) (AU) (AG) (AG)
                 (AG) (AG) (AU) (AU) (AG) (AU) (AG) (AU) (AU) (AU)
                 (AU) (AU) (AU) (AU) (AG) (AG) (AU) (AU) (AU) (AG)
                 (AG) (AG) (AU) (AU) (AU) (AG) (AG) (AG) (AU) (AU)
                 (AU) (AG) (AG) (AU) (AU) (AU) (AG) (AG) (AG) (AG)
                 (AU) (AU) (AU) (AG) (AG) (AU) (AU) (AU) (AG) (AG)
                 (AG) (AU) (AU) (AU) (AG) (AG) (AG) (AG) (AU) (AU)
                 (AU) (AG) (AU) (AU) (AU) (AG) (AG) (AG) (AU) (AU)
                 (AU) (AG) (AG) (AG) (AG) (AG) (AG) (AU) (AU) (AU)
                 (AU) (AU) (AU) (AG) (AG) (AG) (AG) (AG) (AG) (AU)
                 (AU) (AU) (AG) (AG) (AU) (AU) (AU) (AG) (AU) (AU)
                 (AU) (AG) (AG) (AG) (AG) (AU) (AU) (AU) (AG) (AG)
                 (AU) (AU) (AU) (AG) (AG) (AG) (AG) (AG) (AG) (AG)
                 (AG) (AU) (AU) (AU) (AG) (AG) (AG) (AU) (AU) (AU)
                 (AG) (AG) (AG) (AU) (AU) (AU) (AG) (AU) (AU) (AU)
                 (AG) (AG) (AU) (AU) (AU) (AU) (AU) (AG) (AU) (AU)
                 (AG) (AG) (AG) (AG) (AG) (AU) (AU) (AU) (AU) (AU)
                 (AU) (AG) (AU) (AU) (AU) (AG) (AG) (AU) (AU) (AU)
                 (AG) (AG) (AG)
 Beta  Orbitals:
       Occupied  (AG) (AG) (AU) (AU) (AU) (AU) (AG) (AU) (AG) (AU)
                 (AG) (AG) (AU) (AU) (AU) (AG) (AU) (AU) (AU) (AG)
                 (AG) (AG) (AG) (AG) (AU) (AU) (AU) (AG) (AG) (AG)
                 (AG) (AU) (AU) (AU) (AG) (AG) (AU) (AU) (AG) (AU)
                 (AG) (AG)
       Virtual   (AG) (AG) (AG) (AU) (AU) (AU) (AG) (AU) (AU) (AU)
                 (AG) (AG) (AG) (AG) (AG) (AU) (AU) (AU) (AG) (AG)
                 (AG) (AG) (AU) (AU) (AU) (AG) (AG) (AG) (AU) (AU)
                 (AU) (AU) (AU) (AU) (AG) (AG) (AG) (AG) (AG) (AU)
                 (AU) (AU) (AG) (AG) (AG) (AG) (AU) (AU) (AU) (AG)
                 (AG) (AG) (AU) (AU) (AU) (AG) (AG) (AG) (AU) (AU)
                 (AU) (AG) (AG) (AG) (AG) (AG) (AG) (AG) (AG) (AU)
                 (AU) (AU) (AU) (AU) (AU) (AG) (AU) (AU) (AU) (AG)
                 (AG) (AG) (AU) (AU) (AU) (AG) (AG) (AG) (AG) (AG)
                 (AG) (AU) (AU) (AU) (AU) (AU) (AU) (AG) (AG) (AG)
                 (AU) (AU) (AU) (AU) (AU) (AU) (AG) (AG) (AG) (AG)
                 (AG) (AG) (AU) (AU) (AU) (AG) (AG) (AG) (AG) (AG)
                 (AG) (AU) (AU) (AU) (AG) (AG) (AG) (AU) (AU) (AU)
                 (AG) (AG) (AU) (AU) (AU) (AG) (AG) (AG) (AG) (AU)
                 (AU) (AU) (AU) (AU) (AU) (AU) (AU) (AU) (AU) (AG)
                 (AG) (AG) (AU) (AU) (AU) (AG) (AG) (AG) (AG) (AG)
                 (AU) (AU) (AU) (AG) (AG) (AU) (AU) (AU) (AG) (AG)
                 (AG) (AG) (AU) (AU) (AU) (AG) (AG) (AU) (AU) (AU)
                 (AG) (AG) (AG) (AU) (AU) (AU) (AG) (AG) (AG) (AG)
                 (AU) (AU) (AU) (AG) (AU) (AU) (AU) (AG) (AG) (AG)
                 (AU) (AU) (AU) (AG) (AG) (AG) (AG) (AG) (AG) (AU)
                 (AU) (AU) (AU) (AU) (AU) (AG) (AG) (AG) (AG) (AG)
                 (AG) (AU) (AU) (AU) (AG) (AG) (AU) (AU) (AU) (AG)
                 (AU) (AU) (AU) (AG) (AG) (AG) (AG) (AU) (AU) (AU)
                 (AG) (AG) (AU) (AU) (AG) (AU) (AG) (AG) (AG) (AG)
                 (AG) (AU) (AU) (AU) (AG) (AG) (AG) (AG) (AG) (AU)
                 (AU) (AU) (AG) (AG) (AG) (AU) (AU) (AU) (AG) (AG)
                 (AG) (AU) (AU) (AU) (AU) (AU) (AU) (AU) (AG) (AG)
                 (AG) (AU) (AU) (AU) (AG) (AG) (AG) (AU) (AU) (AU)
                 (AU) (AU) (AU) (AG) (AU) (AU) (AU) (AG) (AG) (AU)
                 (AU) (AU) (AG) (AG) (AG)
 The electronic state is 3-AG.
 Alpha  occ. eigenvalues -- -302.40501 -37.00674 -32.44671 -32.44671 -32.44669
 Alpha  occ. eigenvalues --  -19.91185 -19.91185 -19.91183 -19.91183 -19.91183
 Alpha  occ. eigenvalues --  -19.91182  -4.89054  -3.47182  -3.47181  -3.47178
 Alpha  occ. eigenvalues --   -1.41344  -1.41319  -1.41317  -1.41317  -1.41306
 Alpha  occ. eigenvalues --   -1.41305  -1.07106  -1.07105  -1.03705  -1.03705
 Alpha  occ. eigenvalues --   -1.03703  -0.89426  -0.89426  -0.89425  -0.89422
 Alpha  occ. eigenvalues --   -0.89422  -0.89420  -0.78172  -0.76739  -0.76734
 Alpha  occ. eigenvalues --   -0.76722  -0.76184  -0.76182  -0.68440  -0.68426
 Alpha  occ. eigenvalues --   -0.68423  -0.68422  -0.68421  -0.68418
 Alpha virt. eigenvalues --   -0.46526  -0.28397  -0.28377  -0.28373  -0.23627
 Alpha virt. eigenvalues --   -0.19913  -0.19901  -0.19898  -0.19758  -0.19758
 Alpha virt. eigenvalues --   -0.17584  -0.17574  -0.17562  -0.15442  -0.15440
 Alpha virt. eigenvalues --   -0.15434  -0.10494  -0.10467  -0.10398  -0.10178
 Alpha virt. eigenvalues --   -0.07602  -0.07596  -0.07584  -0.07096  -0.07095
 Alpha virt. eigenvalues --   -0.06872  -0.04779  -0.04753  -0.04739  -0.03839
 Alpha virt. eigenvalues --   -0.03824  -0.03790  -0.01339  -0.01339  -0.00663
 Alpha virt. eigenvalues --   -0.00661  -0.00658   0.00729   0.00730   0.00735
 Alpha virt. eigenvalues --    0.01369   0.02314   0.02325   0.02353   0.04625
 Alpha virt. eigenvalues --    0.04628   0.04632   0.06533   0.07866   0.07868
 Alpha virt. eigenvalues --    0.10254   0.10406   0.10466   0.13595   0.13624
 Alpha virt. eigenvalues --    0.13702   0.14809   0.14812   0.15353   0.15358
 Alpha virt. eigenvalues --    0.15362   0.23850   0.32076   0.32122   0.32255
 Alpha virt. eigenvalues --    0.34608   0.34609   0.34849   0.34863   0.34869
 Alpha virt. eigenvalues --    0.38051   0.38087   0.38097   0.42027   0.44551
 Alpha virt. eigenvalues --    0.44554   0.44568   0.45106   0.45137   0.45149
 Alpha virt. eigenvalues --    0.51298   0.51301   0.51309   0.55890   0.55916
 Alpha virt. eigenvalues --    0.55923   0.61291   0.61301   0.62320   0.62605
 Alpha virt. eigenvalues --    0.62666   0.62805   0.68572   0.68679   0.68716
 Alpha virt. eigenvalues --    0.70418   0.70466   0.70568   0.71048   0.71188
 Alpha virt. eigenvalues --    0.71244   0.77731   0.77944   0.78032   0.79570
 Alpha virt. eigenvalues --    0.79575   0.79590   0.81652   0.83146   0.83184
 Alpha virt. eigenvalues --    0.84389   0.84448   0.84589   0.85028   0.85103
 Alpha virt. eigenvalues --    0.85127   1.06133   1.06133   1.06853   1.10393
 Alpha virt. eigenvalues --    1.10415   1.10427   1.19061   1.19109   1.19235
 Alpha virt. eigenvalues --    1.21346   1.21415   1.21438   1.25715   1.25719
 Alpha virt. eigenvalues --    1.29754   1.29922   1.29928   1.29984   1.29984
 Alpha virt. eigenvalues --    1.30006   1.30461   1.45360   1.45399   1.45415
 Alpha virt. eigenvalues --    1.47787   1.48867   1.48881   1.48886   1.52241
 Alpha virt. eigenvalues --    1.52484   1.52713   1.52764   1.52787   1.53228
 Alpha virt. eigenvalues --    1.53415   1.53670   1.56223   1.56226   1.56229
 Alpha virt. eigenvalues --    1.56442   1.56456   1.56496   1.58187   1.58268
 Alpha virt. eigenvalues --    1.58291   1.69698   1.69699   1.71317   1.71344
 Alpha virt. eigenvalues --    1.71424   1.74396   1.96094   1.96328   1.96435
 Alpha virt. eigenvalues --    1.97088   1.97172   1.97219   2.04951   2.04952
 Alpha virt. eigenvalues --    2.06281   2.06493   2.06574   2.07155   2.26511
 Alpha virt. eigenvalues --    2.26515   2.27386   2.27403   2.27455   2.31370
 Alpha virt. eigenvalues --    2.61966   2.61968   2.61970   2.62233   2.62243
 Alpha virt. eigenvalues --    2.62246   2.97640   3.46019   3.46021   3.46023
 Alpha virt. eigenvalues --    3.46213   3.46217   3.46226   3.51817   3.51823
 Alpha virt. eigenvalues --    3.51842   3.52499   3.52501   3.52512   3.54661
 Alpha virt. eigenvalues --    3.54701   3.54793   3.57128   3.57138   3.57164
 Alpha virt. eigenvalues --    3.75603   3.75643   3.75655   3.79280   3.80790
 Alpha virt. eigenvalues --    3.80799   3.85348   3.85394   3.85507   3.86404
 Alpha virt. eigenvalues --    3.86419   3.86421   3.95633   3.95633   3.97112
 Alpha virt. eigenvalues --    3.97132   3.97139   3.97772   4.85492   4.85546
 Alpha virt. eigenvalues --    4.85690   4.86348   4.86364   4.86370   5.32791
 Alpha virt. eigenvalues --    5.36810   5.36814   5.36816   5.39223   5.39227
 Alpha virt. eigenvalues --    5.99244   5.99248   5.99255   5.99255   5.99266
 Alpha virt. eigenvalues --    5.99277   6.31215   6.31305   6.31341   6.40612
 Alpha virt. eigenvalues --    6.40621   6.56372   6.56376   6.56390   6.56970
 Alpha virt. eigenvalues --    6.56981   6.56996   6.59564   6.59566   6.59567
 Alpha virt. eigenvalues --    6.59685   6.59696   6.59728   6.68639   6.68641
 Alpha virt. eigenvalues --    6.68643   6.70847   6.71530   6.71533   6.71538
 Alpha virt. eigenvalues --    6.72126   6.72129   6.72637   6.72643   6.72662
 Alpha virt. eigenvalues --    6.72862   6.98408   6.98449   6.98462   6.98482
 Alpha virt. eigenvalues --    6.98578   6.98582   7.14269   7.14318   7.14340
 Alpha virt. eigenvalues --    7.14386   7.14401   7.14409   8.27371   8.27489
 Alpha virt. eigenvalues --    8.27538  29.27218  35.88848  35.88925  35.88957
 Alpha virt. eigenvalues --   49.72263  49.72264  49.74689  49.74736  49.74755
 Alpha virt. eigenvalues --   49.75801 161.78997 844.25007
  Beta  occ. eigenvalues -- -302.40620 -36.94240 -32.39433 -32.39433 -32.39433
  Beta  occ. eigenvalues --  -19.91150 -19.91150 -19.91148 -19.91148 -19.91148
  Beta  occ. eigenvalues --  -19.91148  -4.79360  -3.34084  -3.34083  -3.34083
  Beta  occ. eigenvalues --   -1.41266  -1.41239  -1.41238  -1.41237  -1.41225
  Beta  occ. eigenvalues --   -1.41224  -0.96738  -0.96738  -0.96736  -0.89387
  Beta  occ. eigenvalues --   -0.89387  -0.89386  -0.89379  -0.89379  -0.89377
  Beta  occ. eigenvalues --   -0.78018  -0.76532  -0.76527  -0.76514  -0.76311
  Beta  occ. eigenvalues --   -0.76309  -0.68386  -0.68371  -0.68366  -0.68366
  Beta  occ. eigenvalues --   -0.68364  -0.68362
  Beta virt. eigenvalues --   -0.49208  -0.49207  -0.45402  -0.28279  -0.28256
  Beta virt. eigenvalues --   -0.28252  -0.23486  -0.19831  -0.19816  -0.19813
  Beta virt. eigenvalues --   -0.19715  -0.19715  -0.17534  -0.17524  -0.17511
  Beta virt. eigenvalues --   -0.15437  -0.15435  -0.15430  -0.10399  -0.10372
  Beta virt. eigenvalues --   -0.10305  -0.10182  -0.07354  -0.07345  -0.07327
  Beta virt. eigenvalues --   -0.07007  -0.07006  -0.06277  -0.04703  -0.04677
  Beta virt. eigenvalues --   -0.04663  -0.03553  -0.03542  -0.03517  -0.01184
  Beta virt. eigenvalues --   -0.01183  -0.00663  -0.00661  -0.00659   0.00750
  Beta virt. eigenvalues --    0.00752   0.00757   0.01431   0.02283   0.02294
  Beta virt. eigenvalues --    0.02319   0.04650   0.04653   0.04658   0.06545
  Beta virt. eigenvalues --    0.08540   0.08542   0.10356   0.10511   0.10571
  Beta virt. eigenvalues --    0.13399   0.13431   0.13513   0.15379   0.15385
  Beta virt. eigenvalues --    0.15388   0.15856   0.15859   0.24374   0.32107
  Beta virt. eigenvalues --    0.32152   0.32284   0.34638   0.34639   0.34884
  Beta virt. eigenvalues --    0.34899   0.34905   0.38054   0.38089   0.38100
  Beta virt. eigenvalues --    0.42083   0.44546   0.44550   0.44564   0.45103
  Beta virt. eigenvalues --    0.45134   0.45146   0.51231   0.51233   0.51240
  Beta virt. eigenvalues --    0.55886   0.55912   0.55918   0.61625   0.61634
  Beta virt. eigenvalues --    0.62331   0.62594   0.62655   0.62797   0.68470
  Beta virt. eigenvalues --    0.68587   0.68627   0.70493   0.70540   0.70644
  Beta virt. eigenvalues --    0.71090   0.71223   0.71278   0.77726   0.77937
  Beta virt. eigenvalues --    0.78025   0.79599   0.79604   0.79620   0.81368
  Beta virt. eigenvalues --    0.84322   0.84407   0.84416   0.84474   0.84615
  Beta virt. eigenvalues --    0.85201   0.85309   0.85376   1.06886   1.06887
  Beta virt. eigenvalues --    1.06906   1.10434   1.10456   1.10467   1.19292
  Beta virt. eigenvalues --    1.19343   1.19475   1.21383   1.21452   1.21476
  Beta virt. eigenvalues --    1.26008   1.26011   1.30138   1.30198   1.30222
  Beta virt. eigenvalues --    1.30491   1.31883   1.32040   1.32100   1.48010
  Beta virt. eigenvalues --    1.48031   1.48052   1.48058   1.50404   1.50431
  Beta virt. eigenvalues --    1.50441   1.53087   1.53121   1.53139   1.53184
  Beta virt. eigenvalues --    1.53243   1.53312   1.56231   1.56232   1.56235
  Beta virt. eigenvalues --    1.56460   1.56474   1.56518   1.56995   1.57066
  Beta virt. eigenvalues --    1.58836   1.58906   1.58925   1.70102   1.70104
  Beta virt. eigenvalues --    1.71603   1.71630   1.71707   1.74536   1.96157
  Beta virt. eigenvalues --    1.96393   1.96501   1.97158   1.97243   1.97291
  Beta virt. eigenvalues --    2.04983   2.04984   2.06373   2.06586   2.06667
  Beta virt. eigenvalues --    2.07150   2.26526   2.26529   2.27403   2.27420
  Beta virt. eigenvalues --    2.27472   2.31380   2.61975   2.61977   2.61979
  Beta virt. eigenvalues --    2.62244   2.62254   2.62257   3.04037   3.46019
  Beta virt. eigenvalues --    3.46022   3.46023   3.46213   3.46217   3.46226
  Beta virt. eigenvalues --    3.51819   3.51825   3.51843   3.52506   3.52509
  Beta virt. eigenvalues --    3.52520   3.54660   3.54701   3.54792   3.57132
  Beta virt. eigenvalues --    3.57142   3.57168   3.75609   3.75649   3.75661
  Beta virt. eigenvalues --    3.79266   3.80829   3.80838   3.85375   3.85420
  Beta virt. eigenvalues --    3.85533   3.86432   3.86446   3.86449   3.95648
  Beta virt. eigenvalues --    3.95649   3.97131   3.97151   3.97158   3.97828
  Beta virt. eigenvalues --    4.85556   4.85610   4.85754   4.86419   4.86434
  Beta virt. eigenvalues --    4.86441   5.32932   5.36953   5.36957   5.36959
  Beta virt. eigenvalues --    5.39494   5.39498   5.99276   5.99280   5.99283
  Beta virt. eigenvalues --    5.99286   5.99294   5.99304   6.35810   6.35900
  Beta virt. eigenvalues --    6.35935   6.56489   6.56494   6.56510   6.57037
  Beta virt. eigenvalues --    6.57123   6.57168   6.58443   6.58534   6.59608
  Beta virt. eigenvalues --    6.59610   6.59611   6.59745   6.59758   6.59792
  Beta virt. eigenvalues --    6.69724   6.69732   6.69752   6.70967   6.74505
  Beta virt. eigenvalues --    6.74508   6.77700   6.78415   6.78418   6.78425
  Beta virt. eigenvalues --    6.81008   6.81011   6.81011   6.98487   6.98623
  Beta virt. eigenvalues --    6.98626   6.98761   6.98810   6.98827   7.14356
  Beta virt. eigenvalues --    7.14406   7.14427   7.14497   7.14512   7.14520
  Beta virt. eigenvalues --    8.35762   8.35876   8.35923  29.38932  35.97717
  Beta virt. eigenvalues --   35.97797  35.97829  49.72246  49.72248  49.74673
  Beta virt. eigenvalues --   49.74720  49.74739  49.75785 161.78904 844.24576
          Condensed to atoms (all electrons):
               1          2          3          4          5          6
     1  Ni  26.236625   0.074568  -0.000646  -0.000617   0.074590  -0.000661
     2  O    0.074568   7.876238   0.300700   0.300838  -0.001291  -0.000132
     3  H   -0.000646   0.300700   0.381301  -0.010477  -0.000080  -0.000025
     4  H   -0.000617   0.300838  -0.010477   0.381265  -0.000090  -0.000030
     5  O    0.074590  -0.001291  -0.000080  -0.000090   7.876160   0.300674
     6  H   -0.000661  -0.000132  -0.000025  -0.000030   0.300674   0.381325
     7  H   -0.000613  -0.000116   0.000021   0.000021   0.300839  -0.010470
     8  O    0.074556  -0.001290  -0.000109  -0.000128  -0.001293  -0.000084
     9  H   -0.000674  -0.000085   0.000019  -0.000028  -0.000106   0.000019
    10  H   -0.000593  -0.000083   0.000021  -0.000027  -0.000126  -0.000028
    11  O    0.074568  -0.000080  -0.000005  -0.000006  -0.001293  -0.000109
    12  H   -0.000646  -0.000005   0.000007   0.000000  -0.000088   0.000019
    13  H   -0.000617  -0.000006   0.000000   0.000007  -0.000080   0.000021
    14  O    0.074590  -0.001293  -0.000088  -0.000080  -0.000080  -0.000005
    15  H   -0.000661  -0.000109   0.000019   0.000021  -0.000005   0.000007
    16  H   -0.000613  -0.000128  -0.000030  -0.000025  -0.000006   0.000000
    17  O    0.074556  -0.001291  -0.000131  -0.000115  -0.001290  -0.000082
    18  H   -0.000674  -0.000080  -0.000025   0.000021  -0.000134  -0.000026
    19  H   -0.000593  -0.000089  -0.000030   0.000021  -0.000118   0.000021
               7          8          9         10         11         12
     1  Ni  -0.000613   0.074556  -0.000674  -0.000593   0.074568  -0.000646
     2  O   -0.000116  -0.001290  -0.000085  -0.000083  -0.000080  -0.000005
     3  H    0.000021  -0.000109   0.000019   0.000021  -0.000005   0.000007
     4  H    0.000021  -0.000128  -0.000028  -0.000027  -0.000006   0.000000
     5  O    0.300839  -0.001293  -0.000106  -0.000126  -0.001293  -0.000088
     6  H   -0.010470  -0.000084   0.000019  -0.000028  -0.000109   0.000019
     7  H    0.381304  -0.000082   0.000020  -0.000027  -0.000128  -0.000030
     8  O   -0.000082   7.876262   0.300640   0.300878  -0.001291  -0.000131
     9  H    0.000020   0.300640   0.381222  -0.010474  -0.000080  -0.000025
    10  H   -0.000027   0.300878  -0.010474   0.381353  -0.000089  -0.000030
    11  O   -0.000128  -0.001291  -0.000080  -0.000089   7.876238   0.300700
    12  H   -0.000030  -0.000131  -0.000025  -0.000030   0.300700   0.381301
    13  H   -0.000025  -0.000115   0.000021   0.000021   0.300838  -0.010477
    14  O   -0.000006  -0.001290  -0.000134  -0.000118  -0.001291  -0.000080
    15  H    0.000000  -0.000082  -0.000026   0.000021  -0.000132  -0.000025
    16  H    0.000007  -0.000087  -0.000029   0.000021  -0.000116   0.000021
    17  O   -0.000087  -0.000080  -0.000005  -0.000006  -0.001290  -0.000109
    18  H   -0.000029  -0.000005   0.000007   0.000000  -0.000085   0.000019
    19  H    0.000021  -0.000006   0.000000   0.000007  -0.000083   0.000021
              13         14         15         16         17         18
     1  Ni  -0.000617   0.074590  -0.000661  -0.000613   0.074556  -0.000674
     2  O   -0.000006  -0.001293  -0.000109  -0.000128  -0.001291  -0.000080
     3  H    0.000000  -0.000088   0.000019  -0.000030  -0.000131  -0.000025
     4  H    0.000007  -0.000080   0.000021  -0.000025  -0.000115   0.000021
     5  O   -0.000080  -0.000080  -0.000005  -0.000006  -0.001290  -0.000134
     6  H    0.000021  -0.000005   0.000007   0.000000  -0.000082  -0.000026
     7  H   -0.000025  -0.000006   0.000000   0.000007  -0.000087  -0.000029
     8  O   -0.000115  -0.001290  -0.000082  -0.000087  -0.000080  -0.000005
     9  H    0.000021  -0.000134  -0.000026  -0.000029  -0.000005   0.000007
    10  H    0.000021  -0.000118   0.000021   0.000021  -0.000006   0.000000
    11  O    0.300838  -0.001291  -0.000132  -0.000116  -0.001290  -0.000085
    12  H   -0.010477  -0.000080  -0.000025   0.000021  -0.000109   0.000019
    13  H    0.381265  -0.000090  -0.000030   0.000021  -0.000128  -0.000028
    14  O   -0.000090   7.876160   0.300674   0.300839  -0.001293  -0.000106
    15  H   -0.000030   0.300674   0.381325  -0.010470  -0.000084   0.000019
    16  H    0.000021   0.300839  -0.010470   0.381304  -0.000082   0.000020
    17  O   -0.000128  -0.001293  -0.000084  -0.000082   7.876262   0.300640
    18  H   -0.000028  -0.000106   0.000019   0.000020   0.300640   0.381222
    19  H   -0.000027  -0.000126  -0.000028  -0.000027   0.300878  -0.010474
              19
     1  Ni  -0.000593
     2  O   -0.000089
     3  H   -0.000030
     4  H    0.000021
     5  O   -0.000118
     6  H    0.000021
     7  H    0.000021
     8  O   -0.000006
     9  H    0.000000
    10  H    0.000007
    11  O   -0.000083
    12  H    0.000021
    13  H   -0.000027
    14  O   -0.000126
    15  H   -0.000028
    16  H   -0.000027
    17  O    0.300878
    18  H   -0.010474
    19  H    0.381353
          Atomic-Atomic Spin Densities.
               1          2          3          4          5          6
     1  Ni   1.961006  -0.005431   0.000446   0.000445  -0.005432   0.000447
     2  O   -0.005431   0.017316  -0.002160  -0.002119   0.000036   0.000005
     3  H    0.000446  -0.002160   0.002179   0.001057   0.000025  -0.000012
     4  H    0.000445  -0.002119   0.001057   0.002132   0.000025  -0.000012
     5  O   -0.005432   0.000036   0.000025   0.000025   0.017320  -0.002161
     6  H    0.000447   0.000005  -0.000012  -0.000012  -0.002161   0.002180
     7  H    0.000445   0.000031  -0.000007  -0.000006  -0.002106   0.001054
     8  O   -0.005428   0.000026   0.000030   0.000003   0.000021   0.000025
     9  H    0.000447   0.000025  -0.000006  -0.000012   0.000030  -0.000006
    10  H    0.000444   0.000026  -0.000007  -0.000012   0.000002  -0.000012
    11  O   -0.005431   0.000064   0.000006   0.000006   0.000025   0.000030
    12  H    0.000446   0.000006  -0.000001  -0.000001   0.000025  -0.000006
    13  H    0.000445   0.000006  -0.000001  -0.000001   0.000026  -0.000007
    14  O   -0.005432   0.000025   0.000025   0.000026   0.000064   0.000006
    15  H    0.000447   0.000030  -0.000006  -0.000007   0.000006  -0.000001
    16  H    0.000445   0.000003  -0.000012  -0.000012   0.000006  -0.000001
    17  O   -0.005428   0.000035   0.000004   0.000031   0.000040   0.000025
    18  H    0.000447   0.000025  -0.000012  -0.000007   0.000005  -0.000012
    19  H    0.000444   0.000026  -0.000012  -0.000006   0.000031  -0.000006
               7          8          9         10         11         12
     1  Ni   0.000445  -0.005428   0.000447   0.000444  -0.005431   0.000446
     2  O    0.000031   0.000026   0.000025   0.000026   0.000064   0.000006
     3  H   -0.000007   0.000030  -0.000006  -0.000007   0.000006  -0.000001
     4  H   -0.000006   0.000003  -0.000012  -0.000012   0.000006  -0.000001
     5  O   -0.002106   0.000021   0.000030   0.000002   0.000025   0.000025
     6  H    0.001054   0.000025  -0.000006  -0.000012   0.000030  -0.000006
     7  H    0.002116   0.000026  -0.000007  -0.000012   0.000003  -0.000012
     8  O    0.000026   0.017304  -0.002183  -0.002084   0.000035   0.000004
     9  H   -0.000007  -0.002183   0.002208   0.001054   0.000025  -0.000012
    10  H   -0.000012  -0.002084   0.001054   0.002089   0.000026  -0.000012
    11  O    0.000003   0.000035   0.000025   0.000026   0.017316  -0.002160
    12  H   -0.000012   0.000004  -0.000012  -0.000012  -0.002160   0.002179
    13  H   -0.000012   0.000031  -0.000007  -0.000006  -0.002119   0.001057
    14  O    0.000006   0.000040   0.000005   0.000031   0.000036   0.000025
    15  H   -0.000001   0.000025  -0.000012  -0.000006   0.000005  -0.000012
    16  H   -0.000001   0.000025  -0.000012  -0.000006   0.000031  -0.000007
    17  O    0.000025   0.000064   0.000006   0.000006   0.000026   0.000030
    18  H   -0.000012   0.000006  -0.000001  -0.000001   0.000025  -0.000006
    19  H   -0.000006   0.000006  -0.000001  -0.000001   0.000026  -0.000007
              13         14         15         16         17         18
     1  Ni   0.000445  -0.005432   0.000447   0.000445  -0.005428   0.000447
     2  O    0.000006   0.000025   0.000030   0.000003   0.000035   0.000025
     3  H   -0.000001   0.000025  -0.000006  -0.000012   0.000004  -0.000012
     4  H   -0.000001   0.000026  -0.000007  -0.000012   0.000031  -0.000007
     5  O    0.000026   0.000064   0.000006   0.000006   0.000040   0.000005
     6  H   -0.000007   0.000006  -0.000001  -0.000001   0.000025  -0.000012
     7  H   -0.000012   0.000006  -0.000001  -0.000001   0.000025  -0.000012
     8  O    0.000031   0.000040   0.000025   0.000025   0.000064   0.000006
     9  H   -0.000007   0.000005  -0.000012  -0.000012   0.000006  -0.000001
    10  H   -0.000006   0.000031  -0.000006  -0.000006   0.000006  -0.000001
    11  O   -0.002119   0.000036   0.000005   0.000031   0.000026   0.000025
    12  H    0.001057   0.000025  -0.000012  -0.000007   0.000030  -0.000006
    13  H    0.002132   0.000025  -0.000012  -0.000006   0.000003  -0.000012
    14  O    0.000025   0.017320  -0.002161  -0.002106   0.000021   0.000030
    15  H   -0.000012  -0.002161   0.002180   0.001054   0.000025  -0.000006
    16  H   -0.000006  -0.002106   0.001054   0.002116   0.000026  -0.000007
    17  O    0.000003   0.000021   0.000025   0.000026   0.017304  -0.002183
    18  H   -0.000012   0.000030  -0.000006  -0.000007  -0.002183   0.002208
    19  H   -0.000012   0.000002  -0.000012  -0.000012  -0.002084   0.001054
              19
     1  Ni   0.000444
     2  O    0.000026
     3  H   -0.000012
     4  H   -0.000006
     5  O    0.000031
     6  H   -0.000006
     7  H   -0.000006
     8  O    0.000006
     9  H   -0.000001
    10  H   -0.000001
    11  O    0.000026
    12  H   -0.000007
    13  H   -0.000012
    14  O    0.000002
    15  H   -0.000012
    16  H   -0.000012
    17  O   -0.002084
    18  H    0.001054
    19  H    0.002089
 Mulliken charges and spin densities:
               1          2
     1  Ni   1.323555   1.933771
     2  O   -0.546267   0.007973
     3  H    0.329558   0.001536
     4  H    0.329430   0.001528
     5  O   -0.546182   0.007989
     6  H    0.329567   0.001533
     7  H    0.329381   0.001522
     8  O   -0.546262   0.007977
     9  H    0.329719   0.001539
    10  H    0.329278   0.001517
    11  O   -0.546267   0.007973
    12  H    0.329558   0.001536
    13  H    0.329430   0.001528
    14  O   -0.546182   0.007989
    15  H    0.329567   0.001533
    16  H    0.329381   0.001522
    17  O   -0.546262   0.007977
    18  H    0.329719   0.001539
    19  H    0.329278   0.001517
 Sum of Mulliken charges =   2.00000   2.00000
 Mulliken charges and spin densities with hydrogens summed into heavy atoms:
               1          2
     1  Ni   1.323555   1.933771
     2  O    0.112721   0.011037
     5  O    0.112766   0.011045
     8  O    0.112735   0.011033
    11  O    0.112721   0.011037
    14  O    0.112766   0.011045
    17  O    0.112735   0.011033
 Electronic spatial extent (au):  <R**2>=           2125.5137
 Charge=              2.0000 electrons
 Dipole moment (field-independent basis, Debye):
    X=              0.0000    Y=              0.0000    Z=              0.0000  Tot=              0.0000
 Quadrupole moment (field-independent basis, Debye-Ang):
   XX=             -5.2236   YY=             -5.2214   ZZ=             -5.2270
   XY=              0.0803   XZ=             -0.0917   YZ=             -0.1522
 Traceless Quadrupole moment (field-independent basis, Debye-Ang):
   XX=              0.0004   YY=              0.0026   ZZ=             -0.0030
   XY=              0.0803   XZ=             -0.0917   YZ=             -0.1522
 Octapole moment (field-independent basis, Debye-Ang**2):
  XXX=              0.0000  YYY=              0.0000  ZZZ=              0.0000  XYY=              0.0000
  XXY=              0.0000  XXZ=              0.0000  XZZ=              0.0000  YZZ=              0.0000
  YYZ=              0.0000  XYZ=              0.0000
 Hexadecapole moment (field-independent basis, Debye-Ang**3):
 XXXX=            -31.6576 YYYY=            -31.7020 ZZZZ=            -32.0170 XXXY=             -2.7060
 XXXZ=             -6.9837 YYYX=              5.2445 YYYZ=              5.8674 ZZZX=              3.7014
 ZZZY=            -11.4508 XXYY=           -205.5721 XXZZ=           -205.5230 YYZZ=           -205.3720
 XXYZ=              0.1099 YYXZ=              0.1066 ZZXY=              0.0312
 N-N= 5.101774570757D+02 E-N=-5.673831649940D+03  KE= 1.962404015739D+03
 Symmetry AG   KE= 1.230097258083D+03
 Symmetry AU   KE= 7.323067576558D+02
                          Isotropic Fermi Contact Couplings
        Atom                 a.u.       MegaHertz       Gauss      10(-4) cm-1
     1  Ni(61)            -1.11184     222.43911      79.37180      74.19770
     2  O(17)              0.02501      -7.57974      -2.70464      -2.52833
     3  H(1)               0.00028       0.61795       0.22050       0.20613
     4  H(1)               0.00027       0.61033       0.21778       0.20359
     5  O(17)              0.02499      -7.57342      -2.70238      -2.52622
     6  H(1)               0.00028       0.61816       0.22057       0.20619
     7  H(1)               0.00027       0.60784       0.21689       0.20275
     8  O(17)              0.02499      -7.57367      -2.70247      -2.52630
     9  H(1)               0.00028       0.62478       0.22294       0.20840
    10  H(1)               0.00027       0.60354       0.21536       0.20132
    11  O(17)              0.02501      -7.57974      -2.70464      -2.52833
    12  H(1)               0.00028       0.61795       0.22050       0.20613
    13  H(1)               0.00027       0.61033       0.21778       0.20359
    14  O(17)              0.02499      -7.57342      -2.70238      -2.52622
    15  H(1)               0.00028       0.61816       0.22057       0.20619
    16  H(1)               0.00027       0.60784       0.21689       0.20275
    17  O(17)              0.02499      -7.57367      -2.70247      -2.52630
    18  H(1)               0.00028       0.62478       0.22294       0.20840
    19  H(1)               0.00027       0.60354       0.21536       0.20132
 --------------------------------------------------------
       Center         ----  Spin Dipole Couplings  ----
                      3XX-RR        3YY-RR        3ZZ-RR
 --------------------------------------------------------
     1   Atom        0.000072     -0.000007     -0.000064
     2   Atom        0.062769     -0.032423     -0.030346
     3   Atom        0.011059     -0.003710     -0.007349
     4   Atom        0.010947     -0.003593     -0.007354
     5   Atom       -0.032439     -0.030355      0.062793
     6   Atom       -0.003729     -0.007346      0.011075
     7   Atom       -0.003571     -0.007357      0.010927
     8   Atom       -0.030338      0.062731     -0.032393
     9   Atom       -0.007339      0.011117     -0.003778
    10   Atom       -0.007366      0.010886     -0.003519
    11   Atom        0.062769     -0.032423     -0.030346
    12   Atom        0.011059     -0.003710     -0.007349
    13   Atom        0.010947     -0.003593     -0.007354
    14   Atom       -0.032439     -0.030355      0.062793
    15   Atom       -0.003729     -0.007346      0.011075
    16   Atom       -0.003571     -0.007357      0.010927
    17   Atom       -0.030338      0.062731     -0.032393
    18   Atom       -0.007339      0.011117     -0.003778
    19   Atom       -0.007366      0.010886     -0.003519
 --------------------------------------------------------
                        XY            XZ            YZ
 --------------------------------------------------------
     1   Atom       -0.000915      0.001017      0.001405
     2   Atom       -0.000670      0.000394     -0.000041
     3   Atom        0.004783     -0.000057     -0.000001
     4   Atom       -0.004971     -0.000242      0.000145
     5   Atom        0.000022      0.000882      0.000758
     6   Atom        0.000091     -0.004752     -0.000207
     7   Atom       -0.000148      0.005004     -0.000275
     8   Atom       -0.000312     -0.000029      0.001460
     9   Atom        0.000055     -0.000010     -0.004668
    10   Atom        0.000168      0.000100      0.005084
    11   Atom       -0.000670      0.000394     -0.000041
    12   Atom        0.004783     -0.000057     -0.000001
    13   Atom       -0.004971     -0.000242      0.000145
    14   Atom        0.000022      0.000882      0.000758
    15   Atom        0.000091     -0.004752     -0.000207
    16   Atom       -0.000148      0.005004     -0.000275
    17   Atom       -0.000312     -0.000029      0.001460
    18   Atom        0.000055     -0.000010     -0.004668
    19   Atom        0.000168      0.000100      0.005084
 --------------------------------------------------------


 ---------------------------------------------------------------------------------
              Anisotropic Spin Dipole Couplings in Principal Axis System
 ---------------------------------------------------------------------------------

       Atom             a.u.   MegaHertz   Gauss  10(-4) cm-1        Axes

              Baa    -0.0022     0.107     0.038     0.036 -0.5080 -0.5970  0.6209
     1 Ni(61) Bbb     0.0009    -0.042    -0.015    -0.014  0.8565 -0.4265  0.2907
              Bcc     0.0014    -0.066    -0.023    -0.022  0.0912  0.6795  0.7279
 
              Baa    -0.0324     2.347     0.837     0.783  0.0070  0.9998  0.0183
     2 O(17)  Bbb    -0.0303     2.196     0.784     0.732 -0.0044 -0.0183  0.9998
              Bcc     0.0628    -4.542    -1.621    -1.515  1.0000 -0.0070  0.0042
 
              Baa    -0.0073    -3.921    -1.399    -1.308  0.0046 -0.0058  1.0000
     3 H(1)   Bbb    -0.0051    -2.734    -0.976    -0.912 -0.2834  0.9590  0.0068
              Bcc     0.0125     6.655     2.375     2.220  0.9590  0.2834 -0.0028
 
              Baa    -0.0074    -3.927    -1.401    -1.310  0.0044 -0.0326  0.9995
     4 H(1)   Bbb    -0.0051    -2.736    -0.976    -0.913  0.2957  0.9548  0.0298
              Bcc     0.0125     6.663     2.378     2.223  0.9553 -0.2954 -0.0138
 
              Baa    -0.0324     2.348     0.838     0.783  0.9999 -0.0072 -0.0092
     5 O(17)  Bbb    -0.0304     2.197     0.784     0.733  0.0072  0.9999 -0.0082
              Bcc     0.0628    -4.545    -1.622    -1.516  0.0093  0.0081  0.9999
 
              Baa    -0.0073    -3.921    -1.399    -1.308 -0.0157  0.9999  0.0072
     6 H(1)   Bbb    -0.0051    -2.733    -0.975    -0.912  0.9594  0.0131  0.2816
              Bcc     0.0125     6.654     2.374     2.220 -0.2815 -0.0113  0.9595
 
              Baa    -0.0074    -3.928    -1.402    -1.310  0.0302  0.9995  0.0068
     7 H(1)   Bbb    -0.0051    -2.737    -0.976    -0.913  0.9542 -0.0268 -0.2979
              Bcc     0.0125     6.665     2.378     2.223  0.2976 -0.0154  0.9546
 
              Baa    -0.0324     2.346     0.837     0.782  0.0115 -0.0153  0.9998
     8 O(17)  Bbb    -0.0303     2.195     0.783     0.732  0.9999  0.0035 -0.0115
              Bcc     0.0628    -4.541    -1.620    -1.515 -0.0034  0.9999  0.0153
 
              Baa    -0.0073    -3.916    -1.397    -1.306  1.0000 -0.0034 -0.0015
     9 H(1)   Bbb    -0.0051    -2.732    -0.975    -0.911  0.0024  0.2763  0.9611
              Bcc     0.0125     6.647     2.372     2.217  0.0028  0.9611 -0.2763
 
              Baa    -0.0074    -3.932    -1.403    -1.311  0.9998 -0.0031 -0.0219
    10 H(1)   Bbb    -0.0051    -2.738    -0.977    -0.913  0.0200 -0.3027  0.9529
              Bcc     0.0125     6.670     2.380     2.225  0.0096  0.9531  0.3025
 
              Baa    -0.0324     2.347     0.837     0.783  0.0070  0.9998  0.0183
    11 O(17)  Bbb    -0.0303     2.196     0.784     0.732 -0.0044 -0.0183  0.9998
              Bcc     0.0628    -4.542    -1.621    -1.515  1.0000 -0.0070  0.0042
 
              Baa    -0.0073    -3.921    -1.399    -1.308  0.0046 -0.0058  1.0000
    12 H(1)   Bbb    -0.0051    -2.734    -0.976    -0.912 -0.2834  0.9590  0.0068
              Bcc     0.0125     6.655     2.375     2.220  0.9590  0.2834 -0.0028
 
              Baa    -0.0074    -3.927    -1.401    -1.310  0.0044 -0.0326  0.9995
    13 H(1)   Bbb    -0.0051    -2.736    -0.976    -0.913  0.2957  0.9548  0.0298
              Bcc     0.0125     6.663     2.378     2.223  0.9553 -0.2954 -0.0138
 
              Baa    -0.0324     2.348     0.838     0.783  0.9999 -0.0072 -0.0092
    14 O(17)  Bbb    -0.0304     2.197     0.784     0.733  0.0072  0.9999 -0.0082
              Bcc     0.0628    -4.545    -1.622    -1.516  0.0093  0.0081  0.9999
 
              Baa    -0.0073    -3.921    -1.399    -1.308 -0.0157  0.9999  0.0072
    15 H(1)   Bbb    -0.0051    -2.733    -0.975    -0.912  0.9594  0.0131  0.2816
              Bcc     0.0125     6.654     2.374     2.220 -0.2815 -0.0113  0.9595
 
              Baa    -0.0074    -3.928    -1.402    -1.310  0.0302  0.9995  0.0068
    16 H(1)   Bbb    -0.0051    -2.737    -0.976    -0.913  0.9542 -0.0268 -0.2979
              Bcc     0.0125     6.665     2.378     2.223  0.2976 -0.0154  0.9546
 
              Baa    -0.0324     2.346     0.837     0.782  0.0115 -0.0153  0.9998
    17 O(17)  Bbb    -0.0303     2.195     0.783     0.732  0.9999  0.0035 -0.0115
              Bcc     0.0628    -4.541    -1.620    -1.515 -0.0034  0.9999  0.0153
 
              Baa    -0.0073    -3.916    -1.397    -1.306  1.0000 -0.0034 -0.0015
    18 H(1)   Bbb    -0.0051    -2.732    -0.975    -0.911  0.0024  0.2763  0.9611
              Bcc     0.0125     6.647     2.372     2.217  0.0028  0.9611 -0.2763
 
              Baa    -0.0074    -3.932    -1.403    -1.311  0.9998 -0.0031 -0.0219
    19 H(1)   Bbb    -0.0051    -2.738    -0.977    -0.913  0.0200 -0.3027  0.9529
              Bcc     0.0125     6.670     2.380     2.225  0.0096  0.9531  0.3025
 

 ---------------------------------------------------------------------------------

 Calling FoFJK, ICntrl=      2127 FMM=F ISym2X=1 I1Cent= 0 IOpClX= 1 NMat=1 NMatS=1 NMatT=0.
 ***** Axes restored to original set *****
 -------------------------------------------------------------------
 Center     Atomic                   Forces (Hartrees/Bohr)
 Number     Number              X              Y              Z
 -------------------------------------------------------------------
      1       28           0.000000000    0.000000000    0.000000000
      2        8           0.022699043   -0.000099218   -0.000218606
      3        1           0.000092403    0.001937946    0.000053800
      4        1           0.000063921   -0.001977617    0.000003860
      5        8          -0.000131585    0.000364105   -0.022695610
      6        1           0.001930788   -0.000065628   -0.000097992
      7        1          -0.001982974   -0.000043171   -0.000060439
      8        8          -0.000162897   -0.022705839   -0.000186488
      9        1           0.000037207   -0.000111100    0.001912312
     10        1           0.000006431   -0.000031515   -0.002012357
     11        8          -0.022699043    0.000099218    0.000218606
     12        1          -0.000092403   -0.001937946   -0.000053800
     13        1          -0.000063921    0.001977617   -0.000003860
     14        8           0.000131585   -0.000364105    0.022695610
     15        1          -0.001930788    0.000065628    0.000097992
     16        1           0.001982974    0.000043171    0.000060439
     17        8           0.000162897    0.022705839    0.000186488
     18        1          -0.000037207    0.000111100   -0.001912312
     19        1          -0.000006431    0.000031515    0.002012357
 -------------------------------------------------------------------
 Cartesian Forces:  Max     0.022705839 RMS     0.007420323

 GradGradGradGradGradGradGradGradGradGradGradGradGradGradGradGradGradGrad
 Berny optimization.
 FormGI is forming the generalized inverse of G from B-inverse, IUseBI=4.
 Internal  Forces:  Max     0.022856350 RMS     0.005282857
 Search for a local minimum.
 Step number   1 out of a maximum of  114
 All quantities printed in internal units (Hartrees-Bohrs-Radians)
 Mixed Optimization -- En-DIIS/RFO-DIIS
 Second derivative matrix not updated -- first step.
 ITU=  0
     Eigenvalues ---    0.00230   0.00230   0.00230   0.00230   0.00230
     Eigenvalues ---    0.00230   0.00230   0.00230   0.00230   0.00230
     Eigenvalues ---    0.00231   0.00231   0.05494   0.05495   0.05496
     Eigenvalues ---    0.06422   0.06423   0.06424   0.12536   0.12637
     Eigenvalues ---    0.12672   0.16000   0.16000   0.16000   0.16000
     Eigenvalues ---    0.16000   0.16000   0.16000   0.16000   0.16000
     Eigenvalues ---    0.16000   0.16000   0.16000   0.54648   0.54648
     Eigenvalues ---    0.54653   0.54653   0.54655   0.54655   0.54663
     Eigenvalues ---    0.54663   0.54666   0.54666   0.54672   0.54672
     Eigenvalues --- 1000.000001000.000001000.000001000.000001000.00000
     Eigenvalues --- 1000.000001000.000001000.000001000.000001000.00000
     Eigenvalues --- 1000.000001000.000001000.000001000.000001000.00000
     Eigenvalues --- 1000.000001000.000001000.000001000.000001000.00000
     Eigenvalues --- 1000.000001000.000001000.000001000.000001000.00000
     Eigenvalues --- 1000.000001000.000001000.000001000.000001000.00000
     Eigenvalues --- 1000.000001000.000001000.000001000.000001000.00000
     Eigenvalues --- 1000.000001000.000001000.000001000.000001000.00000
     Eigenvalues --- 1000.000001000.000001000.000001000.000001000.00000
     Eigenvalues --- 1000.000001000.000001000.000001000.000001000.00000
     Eigenvalues --- 1000.000001000.000001000.000001000.000001000.00000
     Eigenvalues --- 1000.000001000.000001000.000001000.000001000.00000
     Eigenvalues --- 1000.000001000.000001000.000001000.000001000.00000
     Eigenvalues --- 1000.000001000.000001000.000001000.00000
 RFO step:  Lambda=-1.62053595D-04 EMin= 2.30000000D-03
 Linear search not attempted -- first point.
 Iteration  1 RMS(Cart)=  0.00326007 RMS(Int)=  0.00001641
 Iteration  2 RMS(Cart)=  0.00001472 RMS(Int)=  0.00000601
 Iteration  3 RMS(Cart)=  0.00000000 RMS(Int)=  0.00000601
 Iteration  1 RMS(Cart)=  0.00000000 RMS(Int)=  0.00000000
 ClnCor:  largest displacement from symmetrization is 2.64D-08 for atom    12.
 Variable       Old X    -DE/DX   Delta X   Delta X   Delta X     New X
                                 (Linear)    (Quad)   (Total)
    R1        5.66918  -0.02286   0.00000   0.00000   0.00000   5.66918
    R2        5.66918  -0.02286   0.00000   0.00000   0.00000   5.66918
    R3        5.66918  -0.02285   0.00000   0.00000   0.00000   5.66918
    R4        5.66918  -0.02286   0.00000   0.00000   0.00000   5.66918
    R5        5.66918  -0.02286   0.00000   0.00000   0.00000   5.66918
    R6        5.66918  -0.02285   0.00000   0.00000   0.00000   5.66918
    R7        1.82133  -0.00162   0.00000  -0.00296  -0.00296   1.81837
    R8        1.82140  -0.00164   0.00000  -0.00300  -0.00300   1.81839
    R9        1.82130  -0.00161   0.00000  -0.00294  -0.00294   1.81836
   R10        1.82142  -0.00165   0.00000  -0.00301  -0.00301   1.81841
   R11        1.82125  -0.00160   0.00000  -0.00292  -0.00292   1.81833
   R12        1.82146  -0.00166   0.00000  -0.00304  -0.00304   1.81842
   R13        1.82133  -0.00162   0.00000  -0.00296  -0.00296   1.81837
   R14        1.82140  -0.00164   0.00000  -0.00300  -0.00300   1.81839
   R15        1.82130  -0.00161   0.00000  -0.00294  -0.00294   1.81836
   R16        1.82142  -0.00165   0.00000  -0.00301  -0.00301   1.81841
   R17        1.82125  -0.00160   0.00000  -0.00292  -0.00292   1.81833
   R18        1.82146  -0.00166   0.00000  -0.00304  -0.00304   1.81842
    A1        1.57349   0.00001   0.00000   0.00010   0.00010   1.57359
    A2        1.56868  -0.00001   0.00000  -0.00007  -0.00007   1.56862
    A3        1.56810  -0.00001   0.00000  -0.00010  -0.00010   1.56800
    A4        1.57291   0.00001   0.00000   0.00007   0.00007   1.57297
    A5        1.56622  -0.00002   0.00000  -0.00017  -0.00017   1.56605
    A6        1.56810  -0.00001   0.00000  -0.00010  -0.00010   1.56800
    A7        1.57537   0.00002   0.00000   0.00017   0.00017   1.57554
    A8        1.57291   0.00001   0.00000   0.00007   0.00007   1.57297
    A9        1.57537   0.00002   0.00000   0.00017   0.00017   1.57554
   A10        1.57349   0.00001   0.00000   0.00010   0.00010   1.57359
   A11        1.56868  -0.00001   0.00000  -0.00007  -0.00007   1.56862
   A12        1.56622  -0.00002   0.00000  -0.00017  -0.00017   1.56605
   A13        2.20094   0.00065   0.00000   0.00400   0.00399   2.20493
   A14        2.19757   0.00067   0.00000   0.00416   0.00415   2.20172
   A15        1.88450  -0.00132   0.00000  -0.00829  -0.00830   1.87620
   A16        2.20138   0.00064   0.00000   0.00387   0.00384   2.20522
   A17        2.19683   0.00068   0.00000   0.00410   0.00407   2.20090
   A18        1.88445  -0.00132   0.00000  -0.00837  -0.00839   1.87606
   A19        2.20403   0.00062   0.00000   0.00381   0.00381   2.20784
   A20        2.19447   0.00072   0.00000   0.00444   0.00443   2.19891
   A21        1.88458  -0.00133   0.00000  -0.00833  -0.00834   1.87624
   A22        2.20094   0.00065   0.00000   0.00400   0.00399   2.20493
   A23        2.19757   0.00067   0.00000   0.00416   0.00415   2.20172
   A24        1.88450  -0.00132   0.00000  -0.00829  -0.00830   1.87620
   A25        2.20138   0.00064   0.00000   0.00387   0.00384   2.20522
   A26        2.19683   0.00068   0.00000   0.00410   0.00407   2.20090
   A27        1.88445  -0.00132   0.00000  -0.00837  -0.00839   1.87606
   A28        2.20403   0.00062   0.00000   0.00381   0.00381   2.20784
   A29        2.19447   0.00072   0.00000   0.00444   0.00443   2.19891
   A30        1.88458  -0.00133   0.00000  -0.00833  -0.00834   1.87624
   A31        3.14159   0.00000   0.00000   0.00000   0.00000   3.14159
   A32        3.14159   0.00000   0.00000   0.00000   0.00000   3.14159
   A33        3.14159   0.00000   0.00000   0.00000   0.00000   3.14159
   A34        3.14159   0.00000   0.00000   0.00000   0.00000   3.14159
   A35        3.14159   0.00000   0.00000   0.00000   0.00000   3.14159
   A36        3.14159   0.00000   0.00000   0.00000   0.00000   3.14159
    D1       -1.57003  -0.00001   0.00000   0.00201   0.00201  -1.56802
    D2        1.54870  -0.00003   0.00000  -0.00639  -0.00639   1.54231
    D3       -3.13624   0.00002   0.00000   0.00218   0.00218  -3.13406
    D4       -0.01751   0.00000   0.00000  -0.00622  -0.00622  -0.02373
    D5        1.57157  -0.00001   0.00000   0.00201   0.00201   1.57358
    D6       -1.59289  -0.00003   0.00000  -0.00639  -0.00639  -1.59928
    D7        0.00535   0.00002   0.00000   0.00218   0.00218   0.00753
    D8        3.12408   0.00000   0.00000  -0.00622  -0.00622   3.11786
    D9        3.14159   0.00000   0.00000   0.00000   0.00000   3.14159
   D10        0.02286   0.00002   0.00000   0.00840   0.00840   0.03126
   D11       -0.02286  -0.00002   0.00000  -0.00840  -0.00840  -0.03126
   D12        3.14159   0.00000   0.00000   0.00000   0.00000   3.14159
   D13        0.01844   0.00002   0.00000   0.00695   0.00695   0.02540
   D14        3.12096  -0.00002   0.00000  -0.00810  -0.00810   3.11286
   D15        1.58712   0.00001   0.00000   0.00688   0.00688   1.59400
   D16       -1.59355  -0.00002   0.00000  -0.00817  -0.00817  -1.60172
   D17       -3.12315   0.00002   0.00000   0.00695   0.00695  -3.11620
   D18       -0.02063  -0.00002   0.00000  -0.00810  -0.00810  -0.02873
   D19       -1.55448   0.00001   0.00000   0.00688   0.00688  -1.54759
   D20        1.54804  -0.00002   0.00000  -0.00817  -0.00817   1.53987
   D21        3.14159   0.00000   0.00000   0.00000   0.00000   3.14159
   D22        0.03908   0.00004   0.00000   0.01505   0.01505   0.05413
   D23       -0.03908  -0.00004   0.00000  -0.01505  -0.01505  -0.05413
   D24        3.14159   0.00000   0.00000   0.00000   0.00000   3.14159
   D25       -1.57317   0.00000   0.00000  -0.00185  -0.00185  -1.57502
   D26        1.58580   0.00002   0.00000   0.00463   0.00463   1.59043
   D27        3.13652  -0.00001   0.00000  -0.00195  -0.00195   3.13457
   D28        0.01230   0.00001   0.00000   0.00453   0.00453   0.01683
   D29        1.56843   0.00000   0.00000  -0.00185  -0.00185   1.56657
   D30       -1.55579   0.00002   0.00000   0.00463   0.00463  -1.55116
   D31       -0.00507  -0.00001   0.00000  -0.00195  -0.00195  -0.00703
   D32       -3.12929   0.00001   0.00000   0.00453   0.00453  -3.12476
   D33        3.14159   0.00000   0.00000   0.00000   0.00000   3.14159
   D34       -0.01738  -0.00002   0.00000  -0.00648  -0.00648  -0.02386
   D35        0.01738   0.00002   0.00000   0.00648   0.00648   0.02386
   D36        3.14159   0.00000   0.00000   0.00000   0.00000  -3.14159
[...]
    10  H    0.000028  -0.000097   0.000035   0.000016   0.000020   0.000003
    11  O    0.290286  -0.000944  -0.000069  -0.000111  -0.002206  -0.000038
    12  H   -0.004829  -0.000111   0.000038   0.000031  -0.000165   0.000032
    13  H    0.402154  -0.000046   0.000036   0.000026   0.001252   0.000103
    14  O   -0.000046   7.869271   0.285683   0.288783  -0.004066  -0.000544
    15  H    0.000036   0.285683   0.404742  -0.004107   0.000060   0.000057
    16  H    0.000026   0.288783  -0.004107   0.402140   0.000193   0.000146
    17  O    0.001252  -0.004066   0.000060   0.000193   7.864846   0.284416
    18  H    0.000103  -0.000544   0.000057   0.000146   0.284416   0.406425
    19  H    0.000110   0.002284   0.000161   0.000160   0.287599  -0.003252
              19
     1  Ni  -0.003865
     2  O    0.000019
     3  H    0.000028
     4  H    0.000028
     5  O   -0.000097
     6  H    0.000035
     7  H    0.000016
     8  O    0.000020
     9  H    0.000003
    10  H    0.000013
    11  O    0.000255
    12  H    0.000081
    13  H    0.000110
    14  O    0.002284
    15  H    0.000161
    16  H    0.000160
    17  O    0.287599
    18  H   -0.003252
    19  H    0.404591
          Atomic-Atomic Spin Densities.
               1          2          3          4          5          6
     1  Ni   1.950035  -0.006071   0.000398   0.000353  -0.005842   0.000385
     2  O   -0.006071   0.018120  -0.000126   0.000599  -0.000067  -0.000017
     3  H    0.000398  -0.000126   0.000450   0.000161   0.000006  -0.000003
     4  H    0.000353   0.000599   0.000161  -0.000343   0.000004  -0.000002
     5  O   -0.005842  -0.000067   0.000006   0.000004   0.016931  -0.000012
     6  H    0.000385  -0.000017  -0.000003  -0.000002  -0.000012   0.000465
     7  H    0.000349   0.000004  -0.000001   0.000001   0.000893   0.000046
     8  O   -0.005947  -0.000204   0.000026  -0.000021  -0.000323   0.000032
     9  H    0.000380   0.000038  -0.000008  -0.000007   0.000041  -0.000010
    10  H    0.000367   0.000006  -0.000005   0.000007   0.000006  -0.000009
    11  O   -0.006071   0.000065   0.000006  -0.000001  -0.000270   0.000032
    12  H    0.000398   0.000006  -0.000001  -0.000001   0.000042  -0.000009
    13  H    0.000353  -0.000001  -0.000001  -0.000001   0.000012  -0.000005
    14  O   -0.005842  -0.000270   0.000042   0.000012   0.000063   0.000006
    15  H    0.000385   0.000032  -0.000009  -0.000005   0.000006  -0.000001
    16  H    0.000349  -0.000013  -0.000008   0.000004  -0.000002  -0.000001
    17  O   -0.005947  -0.000080  -0.000016   0.000004  -0.000083   0.000008
    18  H    0.000380   0.000010  -0.000005  -0.000001  -0.000020  -0.000003
    19  H    0.000367   0.000008  -0.000001   0.000001   0.000003  -0.000001
               7          8          9         10         11         12
     1  Ni   0.000349  -0.005947   0.000380   0.000367  -0.006071   0.000398
     2  O    0.000004  -0.000204   0.000038   0.000006   0.000065   0.000006
     3  H   -0.000001   0.000026  -0.000008  -0.000005   0.000006  -0.000001
     4  H    0.000001  -0.000021  -0.000007   0.000007  -0.000001  -0.000001
     5  O    0.000893  -0.000323   0.000041   0.000006  -0.000270   0.000042
     6  H    0.000046   0.000032  -0.000010  -0.000009   0.000032  -0.000009
     7  H   -0.000499   0.000016  -0.000007   0.000000  -0.000013  -0.000008
     8  O    0.000016   0.017392  -0.000034   0.001097  -0.000080  -0.000016
     9  H   -0.000007  -0.000034   0.000624   0.000004   0.000010  -0.000005
    10  H    0.000000   0.001097   0.000004  -0.000591   0.000008  -0.000001
    11  O   -0.000013  -0.000080   0.000010   0.000008   0.018120  -0.000126
    12  H   -0.000008  -0.000016  -0.000005  -0.000001  -0.000126   0.000450
    13  H    0.000004   0.000004  -0.000001   0.000001   0.000599   0.000161
    14  O   -0.000002  -0.000083  -0.000020   0.000003  -0.000067   0.000006
    15  H   -0.000001   0.000008  -0.000003  -0.000001  -0.000017  -0.000003
    16  H   -0.000001   0.000000   0.000000   0.000001   0.000004  -0.000001
    17  O    0.000000   0.000063   0.000005  -0.000003  -0.000204   0.000026
    18  H    0.000000   0.000005  -0.000001  -0.000001   0.000038  -0.000008
    19  H    0.000001  -0.000003  -0.000001   0.000000   0.000006  -0.000005
              13         14         15         16         17         18
     1  Ni   0.000353  -0.005842   0.000385   0.000349  -0.005947   0.000380
     2  O   -0.000001  -0.000270   0.000032  -0.000013  -0.000080   0.000010
     3  H   -0.000001   0.000042  -0.000009  -0.000008  -0.000016  -0.000005
     4  H   -0.000001   0.000012  -0.000005   0.000004   0.000004  -0.000001
     5  O    0.000012   0.000063   0.000006  -0.000002  -0.000083  -0.000020
     6  H   -0.000005   0.000006  -0.000001  -0.000001   0.000008  -0.000003
     7  H    0.000004  -0.000002  -0.000001  -0.000001   0.000000   0.000000
     8  O    0.000004  -0.000083   0.000008   0.000000   0.000063   0.000005
     9  H   -0.000001  -0.000020  -0.000003   0.000000   0.000005  -0.000001
    10  H    0.000001   0.000003  -0.000001   0.000001  -0.000003  -0.000001
    11  O    0.000599  -0.000067  -0.000017   0.000004  -0.000204   0.000038
    12  H    0.000161   0.000006  -0.000003  -0.000001   0.000026  -0.000008
    13  H   -0.000343   0.000004  -0.000002   0.000001  -0.000021  -0.000007
    14  O    0.000004   0.016931  -0.000012   0.000893  -0.000323   0.000041
    15  H   -0.000002  -0.000012   0.000465   0.000046   0.000032  -0.000010
    16  H    0.000001   0.000893   0.000046  -0.000499   0.000016  -0.000007
    17  O   -0.000021  -0.000323   0.000032   0.000016   0.017392  -0.000034
    18  H   -0.000007   0.000041  -0.000010  -0.000007  -0.000034   0.000624
    19  H    0.000007   0.000006  -0.000009   0.000000   0.001097   0.000004
              19
     1  Ni   0.000367
     2  O    0.000008
     3  H   -0.000001
     4  H    0.000001
     5  O    0.000003
     6  H   -0.000001
     7  H    0.000001
     8  O   -0.000003
     9  H   -0.000001
    10  H    0.000000
    11  O    0.000006
    12  H   -0.000005
    13  H    0.000007
    14  O    0.000006
    15  H   -0.000009
    16  H    0.000000
    17  O    0.001097
    18  H    0.000004
    19  H   -0.000591
 Mulliken charges and spin densities:
               1          2
     1  Ni   1.287889   1.918778
     2  O   -0.511825   0.012038
     3  H    0.315463   0.000905
     4  H    0.314217   0.000765
     5  O   -0.512258   0.011389
     6  H    0.315171   0.000902
     7  H    0.314684   0.000783
     8  O   -0.505987   0.011932
     9  H    0.314779   0.001007
    10  H    0.311812   0.000891
    11  O   -0.511825   0.012038
    12  H    0.315463   0.000905
    13  H    0.314217   0.000765
    14  O   -0.512258   0.011389
    15  H    0.315171   0.000902
    16  H    0.314684   0.000783
    17  O   -0.505987   0.011932
    18  H    0.314779   0.001007
    19  H    0.311812   0.000891
 Sum of Mulliken charges =   2.00000   2.00000
 Mulliken charges and spin densities with hydrogens summed into heavy atoms:
               1          2
     1  Ni   1.287889   1.918778
     2  O    0.117854   0.013707
     5  O    0.117597   0.013074
     8  O    0.120604   0.013830
    11  O    0.117854   0.013707
    14  O    0.117597   0.013074
    17  O    0.120604   0.013830
 Electronic spatial extent (au):  <R**2>=           2107.1016
 Charge=              2.0000 electrons
 Dipole moment (field-independent basis, Debye):
    X=              0.0000    Y=              0.0000    Z=              0.0000  Tot=              0.0000
 Quadrupole moment (field-independent basis, Debye-Ang):
   XX=             -8.1507   YY=             -9.5445   ZZ=             -8.3589
   XY=             -1.3892   XZ=              3.6535   YZ=              4.7815
 Traceless Quadrupole moment (field-independent basis, Debye-Ang):
   XX=              0.5340   YY=             -0.8598   ZZ=              0.3258
   XY=             -1.3892   XZ=              3.6535   YZ=              4.7815
 Octapole moment (field-independent basis, Debye-Ang**2):
  XXX=              0.0000  YYY=              0.0000  ZZZ=              0.0000  XYY=              0.0000
  XXY=              0.0000  XXZ=              0.0000  XZZ=              0.0000  YZZ=              0.0000
  YYZ=              0.0000  XYZ=              0.0000
 Hexadecapole moment (field-independent basis, Debye-Ang**3):
 XXXX=           -115.1643 YYYY=           -138.7381 ZZZZ=           -126.1112 XXXY=             49.7731
 XXXZ=            -57.5415 YYYX=             61.5617 YYYZ=            -71.0432 ZZZX=            -58.0188
 ZZZY=            -59.7917 XXYY=           -212.4752 XXZZ=           -212.6275 YYZZ=           -209.9548
 XXYZ=            -38.7050 YYXZ=            -26.0395 ZZXY=             28.0988
 N-N= 5.170654327171D+02 E-N=-5.687465072922D+03  KE= 1.962437884123D+03
 Symmetry AG   KE= 1.230049790282D+03
 Symmetry AU   KE= 7.323880938419D+02
                          Isotropic Fermi Contact Couplings
        Atom                 a.u.       MegaHertz       Gauss      10(-4) cm-1
     1  Ni(61)            -1.10540     221.15238      78.91267      73.76849
     2  O(17)              0.01897      -5.75020      -2.05182      -1.91806
     3  H(1)              -0.00003      -0.06552      -0.02338      -0.02185
     4  H(1)              -0.00008      -0.18063      -0.06445      -0.06025
     5  O(17)              0.01771      -5.36793      -1.91541      -1.79055
     6  H(1)              -0.00005      -0.10605      -0.03784      -0.03537
     7  H(1)              -0.00010      -0.21529      -0.07682      -0.07181
     8  O(17)              0.01876      -5.68645      -2.02907      -1.89680
     9  H(1)              -0.00002      -0.05216      -0.01861      -0.01740
    10  H(1)              -0.00010      -0.21806      -0.07781      -0.07274
    11  O(17)              0.01897      -5.75020      -2.05182      -1.91806
    12  H(1)              -0.00003      -0.06552      -0.02338      -0.02185
    13  H(1)              -0.00008      -0.18063      -0.06445      -0.06025
    14  O(17)              0.01771      -5.36793      -1.91541      -1.79055
    15  H(1)              -0.00005      -0.10605      -0.03784      -0.03537
    16  H(1)              -0.00010      -0.21529      -0.07682      -0.07181
    17  O(17)              0.01876      -5.68645      -2.02907      -1.89680
    18  H(1)              -0.00002      -0.05216      -0.01861      -0.01740
    19  H(1)              -0.00010      -0.21806      -0.07781      -0.07274
 --------------------------------------------------------
       Center         ----  Spin Dipole Couplings  ----
                      3XX-RR        3YY-RR        3ZZ-RR
 --------------------------------------------------------
     1   Atom       -0.007514     -0.001210      0.008723
     2   Atom        0.057268     -0.042924     -0.014344
     3   Atom        0.012312     -0.005102     -0.007210
     4   Atom        0.010000     -0.002093     -0.007907
     5   Atom       -0.040921     -0.010599      0.051521
     6   Atom       -0.005357     -0.007080      0.012436
     7   Atom       -0.001788     -0.007807      0.009595
     8   Atom       -0.017304      0.056702     -0.039399
     9   Atom       -0.007264      0.012683     -0.005418
    10   Atom       -0.008144      0.009332     -0.001188
    11   Atom        0.057268     -0.042924     -0.014344
    12   Atom        0.012312     -0.005102     -0.007210
    13   Atom        0.010000     -0.002093     -0.007907
    14   Atom       -0.040921     -0.010599      0.051521
    15   Atom       -0.005357     -0.007080      0.012436
    16   Atom       -0.001788     -0.007807      0.009595
    17   Atom       -0.017304      0.056702     -0.039399
    18   Atom       -0.007264      0.012683     -0.005418
    19   Atom       -0.008144      0.009332     -0.001188
 --------------------------------------------------------
                        XY            XZ            YZ
 --------------------------------------------------------
     1   Atom       -0.192357      0.221630      0.266352
     2   Atom       -0.015170      0.050540     -0.007828
     3   Atom        0.003896      0.001155     -0.001142
     4   Atom       -0.007606      0.002106      0.000529
     5   Atom        0.010232      0.018030      0.051305
     6   Atom        0.001055     -0.003403      0.001622
     7   Atom       -0.000315      0.007965      0.002517
     8   Atom       -0.048413     -0.012671      0.024971
     9   Atom       -0.000768     -0.001217     -0.002825
    10   Atom       -0.001602      0.000834      0.008400
    11   Atom       -0.015170      0.050540     -0.007828
    12   Atom        0.003896      0.001155     -0.001142
    13   Atom       -0.007606      0.002106      0.000529
    14   Atom        0.010232      0.018030      0.051305
    15   Atom        0.001055     -0.003403      0.001622
    16   Atom       -0.000315      0.007965      0.002517
    17   Atom       -0.048413     -0.012671      0.024971
    18   Atom       -0.000768     -0.001217     -0.002825
    19   Atom       -0.001602      0.000834      0.008400
 --------------------------------------------------------


 ---------------------------------------------------------------------------------
              Anisotropic Spin Dipole Couplings in Principal Axis System
 ---------------------------------------------------------------------------------

       Atom             a.u.   MegaHertz   Gauss  10(-4) cm-1        Axes

              Baa    -0.4544    21.705     7.745     7.240 -0.5482 -0.5843  0.5984
     1 Ni(61) Bbb     0.1798    -8.588    -3.065    -2.865  0.8153 -0.5328  0.2267
              Bcc     0.2746   -13.116    -4.680    -4.375  0.1863  0.6121  0.7685
 
              Baa    -0.0452     3.270     1.167     1.091  0.1182  0.9913  0.0578
     2 O(17)  Bbb    -0.0405     2.929     1.045     0.977 -0.4589  0.0029  0.8885
              Bcc     0.0857    -6.199    -2.212    -2.068  0.8806 -0.1316  0.4553
 
              Baa    -0.0081    -4.321    -1.542    -1.441 -0.1456  0.5119  0.8466
     3 H(1)   Bbb    -0.0051    -2.712    -0.968    -0.905 -0.1516  0.8341 -0.5304
              Bcc     0.0132     7.034     2.510     2.346  0.9777  0.2056  0.0439
 
              Baa    -0.0087    -4.638    -1.655    -1.547 -0.2465 -0.3563  0.9013
     4 H(1)   Bbb    -0.0051    -2.725    -0.972    -0.909  0.3587  0.8304  0.4264
              Bcc     0.0138     7.363     2.627     2.456  0.9003 -0.4284  0.0769
 
              Baa    -0.0444     3.210     1.146     1.071  0.9864 -0.0913 -0.1366
     5 O(17)  Bbb    -0.0395     2.859     1.020     0.954  0.0123  0.8701 -0.4928
              Bcc     0.0839    -6.069    -2.166    -2.025  0.1639  0.4844  0.8594
 
              Baa    -0.0080    -4.289    -1.530    -1.431 -0.5244  0.8375 -0.1535
     6 H(1)   Bbb    -0.0051    -2.734    -0.976    -0.912  0.8330  0.5420  0.1114
              Bcc     0.0132     7.023     2.506     2.343 -0.1765  0.0695  0.9819
 
              Baa    -0.0087    -4.655    -1.661    -1.553  0.3610  0.8898 -0.2792
     7 H(1)   Bbb    -0.0052    -2.759    -0.985    -0.920  0.8173 -0.4461 -0.3648
              Bcc     0.0139     7.414     2.646     2.473  0.4491  0.0965  0.8882
 
              Baa    -0.0456     3.302     1.178     1.101  0.1541 -0.1648  0.9742
     8 O(17)  Bbb    -0.0412     2.982     1.064     0.995  0.8881  0.4553 -0.0634
              Bcc     0.0868    -6.284    -2.242    -2.096 -0.4331  0.8750  0.2165
 
              Baa    -0.0081    -4.303    -1.535    -1.435  0.8591  0.1002  0.5020
     9 H(1)   Bbb    -0.0051    -2.702    -0.964    -0.901 -0.5111  0.1135  0.8520
              Bcc     0.0131     7.005     2.500     2.337 -0.0283  0.9885 -0.1487
 
              Baa    -0.0089    -4.761    -1.699    -1.588  0.8979  0.2466 -0.3646
    10 H(1)   Bbb    -0.0051    -2.724    -0.972    -0.909  0.4378 -0.4154  0.7974
              Bcc     0.0140     7.485     2.671     2.497 -0.0452  0.8756  0.4809
 
              Baa    -0.0452     3.270     1.167     1.091  0.1182  0.9913  0.0578
    11 O(17)  Bbb    -0.0405     2.929     1.045     0.977 -0.4589  0.0029  0.8885
              Bcc     0.0857    -6.199    -2.212    -2.068  0.8806 -0.1316  0.4553
 
              Baa    -0.0081    -4.321    -1.542    -1.441 -0.1456  0.5119  0.8466
    12 H(1)   Bbb    -0.0051    -2.712    -0.968    -0.905 -0.1516  0.8341 -0.5304
              Bcc     0.0132     7.034     2.510     2.346  0.9777  0.2056  0.0439
 
              Baa    -0.0087    -4.638    -1.655    -1.547 -0.2465 -0.3563  0.9013
    13 H(1)   Bbb    -0.0051    -2.725    -0.972    -0.909  0.3587  0.8304  0.4264
              Bcc     0.0138     7.363     2.627     2.456  0.9003 -0.4284  0.0769
 
              Baa    -0.0444     3.210     1.146     1.071  0.9864 -0.0913 -0.1366
    14 O(17)  Bbb    -0.0395     2.859     1.020     0.954  0.0123  0.8701 -0.4928
              Bcc     0.0839    -6.069    -2.166    -2.025  0.1639  0.4844  0.8594
 
              Baa    -0.0080    -4.289    -1.530    -1.431 -0.5244  0.8375 -0.1535
    15 H(1)   Bbb    -0.0051    -2.734    -0.976    -0.912  0.8330  0.5420  0.1114
              Bcc     0.0132     7.023     2.506     2.343 -0.1765  0.0695  0.9819
 
              Baa    -0.0087    -4.655    -1.661    -1.553  0.3610  0.8898 -0.2792
    16 H(1)   Bbb    -0.0052    -2.759    -0.985    -0.920  0.8173 -0.4461 -0.3648
              Bcc     0.0139     7.414     2.646     2.473  0.4491  0.0965  0.8882
 
              Baa    -0.0456     3.302     1.178     1.101  0.1541 -0.1648  0.9742
    17 O(17)  Bbb    -0.0412     2.982     1.064     0.995  0.8881  0.4553 -0.0634
              Bcc     0.0868    -6.284    -2.242    -2.096 -0.4331  0.8750  0.2165
 
              Baa    -0.0081    -4.303    -1.535    -1.435  0.8591  0.1002  0.5020
    18 H(1)   Bbb    -0.0051    -2.702    -0.964    -0.901 -0.5111  0.1135  0.8520
              Bcc     0.0131     7.005     2.500     2.337 -0.0283  0.9885 -0.1487
 
              Baa    -0.0089    -4.761    -1.699    -1.588  0.8979  0.2466 -0.3646
    19 H(1)   Bbb    -0.0051    -2.724    -0.972    -0.909  0.4378 -0.4154  0.7974
              Bcc     0.0140     7.485     2.671     2.497 -0.0452  0.8756  0.4809
 

 ---------------------------------------------------------------------------------

 1\1\GINC-MN59\FOpt\UM062X\6-311++G(2d,2p)\H12Ni1O6(2+,3)\DARAM_A\01-Se
 p-2015\0\\# opt=modredundant 6-311++g(2d,2p) geom=connectivity m062x o
 utput=wfnx\\Ni23_30\\2,3\Ni,0.,0.,0.\O,-2.9264485389,0.2965702731,-0.5
 898686564\H,-3.5918914488,-0.3533249402,-0.3372701921\H,-3.2968565403,
 1.1602796212,-0.374683169\O,0.370403044,0.6679306528,2.9011498098\H,-0
 .2569426555,0.430233608,3.5934098204\H,1.2448020082,0.4450388715,3.240
 944975\O,-0.5254611902,2.916583109,0.4662976868\H,-0.2801366915,3.6296
 451929,-0.1339380676\H,-0.2642795148,3.1995907822,1.3501648042\O,2.926
 4485389,-0.2965702731,0.5898686564\H,3.5918914488,0.3533249402,0.33727
 01921\H,3.2968565403,-1.1602796212,0.374683169\O,-0.370403044,-0.66793
 06528,-2.9011498098\H,0.2569426555,-0.430233608,-3.5934098204\H,-1.244
 8020082,-0.4450388715,-3.240944975\O,0.5254611902,-2.916583109,-0.4662
 976868\H,0.2801366915,-3.6296451929,0.1339380676\H,0.2642795148,-3.199
 5907822,-1.3501648042\\Version=ES64L-G09RevD.01\State=3-AG\HF=-1966.10
 79292\S2=2.004052\S2-1=0.\S2A=2.000011\RMSD=6.094e-09\RMSF=7.436e-03\D
 ipole=0.,0.,0.\Quadrupole=0.3969802,-0.6392143,0.2422341,-1.0328601,2.
 7162736,3.5549462\PG=CI [O(Ni1),X(H12O6)]\\@

 Writing a WFNX file to "Ni23_30.wfx"


 Everything starts as somebody's daydream.
                           -- Larry Niven
 Job cpu time:       0 days  7 hours  6 minutes 36.4 seconds.
 File lengths (MBytes):  RWF=     95 Int=      0 D2E=      0 Chk=     12 Scr=      1
 Normal termination of Gaussian 09 at Tue Sep  1 15:30:15 2015.
