 Entering Gaussian System, Link 0=g09
 Input=Ni23_28.com
 Output=Ni23_28.log
 Initial command:
 /opt/SC/aplicaciones/g09-D.01/l1.exe "/tmpu/fercor_g/daram_a/Gau-28810.inp" -scrdir="/tmpu/fercor_g/daram_a/"
 Entering Link 1 = /opt/SC/aplicaciones/g09-D.01/l1.exe PID=     28811.
  
 Copyright (c) 1988,1990,1992,1993,1995,1998,2003,2009,2013,
            Gaussian, Inc.  All Rights Reserved.
  
 This is part of the Gaussian(R) 09 program.  It is based on
 the Gaussian(R) 03 system (copyright 2003, Gaussian, Inc.),
 the Gaussian(R) 98 system (copyright 1998, Gaussian, Inc.),
 the Gaussian(R) 94 system (copyright 1995, Gaussian, Inc.),
 the Gaussian 92(TM) system (copyright 1992, Gaussian, Inc.),
 the Gaussian 90(TM) system (copyright 1990, Gaussian, Inc.),
 the Gaussian 88(TM) system (copyright 1988, Gaussian, Inc.),
 the Gaussian 86(TM) system (copyright 1986, Carnegie Mellon
 University), and the Gaussian 82(TM) system (copyright 1983,
 Carnegie Mellon University). Gaussian is a federally registered
 trademark of Gaussian, Inc.
  
 This software contains proprietary and confidential information,
 including trade secrets, belonging to Gaussian, Inc.
  
 This software is provided under written license and may be
 used, copied, transmitted, or stored only in accord with that
 written license.
  
 The following legend is applicable only to US Government
 contracts under FAR:
  
                    RESTRICTED RIGHTS LEGEND
  
 Use, reproduction and disclosure by the US Government is
 subject to restrictions as set forth in subparagraphs (a)
 and (c) of the Commercial Computer Software - Restricted
 Rights clause in FAR 52.227-19.
  
 Gaussian, Inc.
 340 Quinnipiac St., Bldg. 40, Wallingford CT 06492
  
  
 ---------------------------------------------------------------
 Warning -- This program may not be used in any manner that
 competes with the business of Gaussian, Inc. or will provide
 assistance to any competitor of Gaussian, Inc.  The licensee
 of this program is prohibited from giving any competitor of
 Gaussian, Inc. access to this program.  By using this program,
 the user acknowledges that Gaussian, Inc. is engaged in the
 business of creating and licensing software in the field of
 computational chemistry and represents and warrants to the
 licensee that it is not a competitor of Gaussian, Inc. and that
 it will not use this program in any manner prohibited above.
 ---------------------------------------------------------------
  

 Cite this work as:
 Gaussian 09, Revision D.01,
 M. J. Frisch, G. W. Trucks, H. B. Schlegel, G. E. Scuseria, 
 M. A. Robb, J. R. Cheeseman, G. Scalmani, V. Barone, B. Mennucci, 
 G. A. Petersson, H. Nakatsuji, M. Caricato, X. Li, H. P. Hratchian, 
 A. F. Izmaylov, J. Bloino, G. Zheng, J. L. Sonnenberg, M. Hada, 
 M. Ehara, K. Toyota, R. Fukuda, J. Hasegawa, M. Ishida, T. Nakajima, 
 Y. Honda, O. Kitao, H. Nakai, T. Vreven, J. A. Montgomery, Jr., 
 J. E. Peralta, F. Ogliaro, M. Bearpark, J. J. Heyd, E. Brothers, 
 K. N. Kudin, V. N. Staroverov, T. Keith, R. Kobayashi, J. Normand, 
 K. Raghavachari, A. Rendell, J. C. Burant, S. S. Iyengar, J. Tomasi, 
 M. Cossi, N. Rega, J. M. Millam, M. Klene, J. E. Knox, J. B. Cross, 
 V. Bakken, C. Adamo, J. Jaramillo, R. Gomperts, R. E. Stratmann, 
 O. Yazyev, A. J. Austin, R. Cammi, C. Pomelli, J. W. Ochterski, 
 R. L. Martin, K. Morokuma, V. G. Zakrzewski, G. A. Voth, 
 P. Salvador, J. J. Dannenberg, S. Dapprich, A. D. Daniels, 
 O. Farkas, J. B. Foresman, J. V. Ortiz, J. Cioslowski, 
 and D. J. Fox, Gaussian, Inc., Wallingford CT, 2013.
 
 ******************************************
 Gaussian 09:  ES64L-G09RevD.01 24-Apr-2013
                 1-Sep-2015 
 ******************************************
 %nprocshared=16
 Will use up to   16 processors via shared memory.
 %mem=32GB
 %chk=Ni23_28.chk
 ----------------------------------------------------------------------
 # opt=modredundant 6-311++g(2d,2p) geom=connectivity m062x output=wfnx
 ----------------------------------------------------------------------
 1/14=-1,18=120,19=15,26=3,38=1,57=2/1,3;
 2/9=110,12=2,17=6,18=5,40=1/2;
 3/5=4,6=6,7=1212,11=2,16=1,25=1,30=1,71=1,74=-55/1,2,3;
 4//1;
 5/5=2,38=5/2;
 6/7=2,8=2,9=2,10=2,28=1/1;
 7//1,2,3,16;
 1/14=-1,18=20,19=15,26=3/3(2);
 2/9=110/2;
 99/6=200/99;
 2/9=110/2;
 3/5=4,6=6,7=1212,11=2,16=1,25=1,30=1,71=1,74=-55/1,2,3;
 4/5=5,16=3,69=1/1;
 5/5=2,38=5/2;
 7//1,2,3,16;
 1/14=-1,18=20,19=15,26=3/3(-5);
 2/9=110/2;
 6/7=2,8=2,9=2,10=2,19=2,28=1/1;
 99/6=200,9=1/99;
 -------
 Ni23_28
 -------
 Symbolic Z-matrix:
 Charge =  2 Multiplicity = 3
 Ni                    0.        0.        0. 
 O                    -2.79991   0.017     0.01525 
 H                    -3.37258  -0.75822   0.01237 
 H                    -3.36035   0.80069   0.04216 
 O                     0.02264  -0.02377   2.79981 
 H                    -0.75112  -0.03824   3.37425 
 H                     0.80797  -0.0494    3.35803 
 O                     0.01128   2.79974   0.03649 
 H                     0.01126   3.38013  -0.73291 
 H                     0.02949   3.35235   0.82601 
 O                     2.79991  -0.017    -0.01525 
 H                     3.37258   0.75822  -0.01237 
 H                     3.36035  -0.80069  -0.04216 
 O                    -0.02264   0.02377  -2.79981 
 H                     0.75112   0.03824  -3.37425 
 H                    -0.80797   0.0494   -3.35803 
 O                    -0.01128  -2.79974  -0.03649 
 H                    -0.01126  -3.38013   0.73291 
 H                    -0.02949  -3.35235  -0.82601 
 
 Add virtual bond connecting atoms O2         and Ni1        Dist= 5.29D+00.
 Add virtual bond connecting atoms O11        and Ni1        Dist= 5.29D+00.
 Add virtual bond connecting atoms O8         and Ni1        Dist= 5.29D+00.
 Add virtual bond connecting atoms O17        and Ni1        Dist= 5.29D+00.
 Add virtual bond connecting atoms O5         and Ni1        Dist= 5.29D+00.
 Add virtual bond connecting atoms O14        and Ni1        Dist= 5.29D+00.
 The following ModRedundant input section has been read:
 B       1       8 F                                                           
 B       1      14 F                                                           
 B       1      11 F                                                           
 B       1       2 F                                                           
 B       1       5 F                                                           
 B       1      17 F                                                           
 

 GradGradGradGradGradGradGradGradGradGradGradGradGradGradGradGradGradGrad
 Berny optimization.
 Initialization pass.
                           ----------------------------
                           !    Initial Parameters    !
                           ! (Angstroms and Degrees)  !
 --------------------------                            --------------------------
 ! Name  Definition              Value          Derivative Info.                !
 --------------------------------------------------------------------------------
 ! R1    R(1,2)                  2.8            Frozen                          !
 ! R2    R(1,5)                  2.8            Frozen                          !
 ! R3    R(1,8)                  2.8            Frozen                          !
 ! R4    R(1,11)                 2.8            Frozen                          !
 ! R5    R(1,14)                 2.8            Frozen                          !
 ! R6    R(1,17)                 2.8            Frozen                          !
 ! R7    R(2,3)                  0.9638         estimate D2E/DX2                !
 ! R8    R(2,4)                  0.9638         estimate D2E/DX2                !
 ! R9    R(5,6)                  0.9638         estimate D2E/DX2                !
 ! R10   R(5,7)                  0.9639         estimate D2E/DX2                !
 ! R11   R(8,9)                  0.9638         estimate D2E/DX2                !
 ! R12   R(8,10)                 0.9639         estimate D2E/DX2                !
 ! R13   R(11,12)                0.9638         estimate D2E/DX2                !
 ! R14   R(11,13)                0.9638         estimate D2E/DX2                !
 ! R15   R(14,15)                0.9638         estimate D2E/DX2                !
 ! R16   R(14,16)                0.9639         estimate D2E/DX2                !
 ! R17   R(17,18)                0.9638         estimate D2E/DX2                !
 ! R18   R(17,19)                0.9639         estimate D2E/DX2                !
 ! A1    A(2,1,5)               90.1543         estimate D2E/DX2                !
 ! A2    A(2,1,8)               89.879          estimate D2E/DX2                !
 ! A3    A(2,1,14)              89.8457         estimate D2E/DX2                !
 ! A4    A(2,1,17)              90.121          estimate D2E/DX2                !
 ! A5    A(5,1,8)               89.7379         estimate D2E/DX2                !
 ! A6    A(5,1,11)              89.8457         estimate D2E/DX2                !
 ! A7    A(5,1,17)              90.2621         estimate D2E/DX2                !
 ! A8    A(8,1,11)              90.121          estimate D2E/DX2                !
 ! A9    A(8,1,14)              90.2621         estimate D2E/DX2                !
 ! A10   A(11,1,14)             90.1543         estimate D2E/DX2                !
 ! A11   A(11,1,17)             89.879          estimate D2E/DX2                !
 ! A12   A(14,1,17)             89.7379         estimate D2E/DX2                !
 ! A13   A(1,2,3)              126.1044         estimate D2E/DX2                !
 ! A14   A(1,2,4)              125.9115         estimate D2E/DX2                !
 ! A15   A(3,2,4)              107.9738         estimate D2E/DX2                !
 ! A16   A(1,5,6)              126.1297         estimate D2E/DX2                !
 ! A17   A(1,5,7)              125.8691         estimate D2E/DX2                !
 ! A18   A(6,5,7)              107.9711         estimate D2E/DX2                !
 ! A19   A(1,8,9)              126.2818         estimate D2E/DX2                !
 ! A20   A(1,8,10)             125.734          estimate D2E/DX2                !
 ! A21   A(9,8,10)             107.9782         estimate D2E/DX2                !
 ! A22   A(1,11,12)            126.1044         estimate D2E/DX2                !
 ! A23   A(1,11,13)            125.9115         estimate D2E/DX2                !
 ! A24   A(12,11,13)           107.9738         estimate D2E/DX2                !
 ! A25   A(1,14,15)            126.1297         estimate D2E/DX2                !
 ! A26   A(1,14,16)            125.8691         estimate D2E/DX2                !
 ! A27   A(15,14,16)           107.9711         estimate D2E/DX2                !
 ! A28   A(1,17,18)            126.2818         estimate D2E/DX2                !
 ! A29   A(1,17,19)            125.734          estimate D2E/DX2                !
 ! A30   A(18,17,19)           107.9782         estimate D2E/DX2                !
 ! A31   L(2,1,11,5,-1)        180.0            estimate D2E/DX2                !
 ! A32   L(5,1,14,2,-1)        180.0            estimate D2E/DX2                !
 ! A33   L(8,1,17,2,-1)        180.0            estimate D2E/DX2                !
 ! A34   L(2,1,11,5,-2)        180.0            estimate D2E/DX2                !
 ! A35   L(5,1,14,2,-2)        180.0            estimate D2E/DX2                !
 ! A36   L(8,1,17,2,-2)        180.0            estimate D2E/DX2                !
 ! D1    D(5,1,2,3)            -89.9559         estimate D2E/DX2                !
 ! D2    D(5,1,2,4)             88.7341         estimate D2E/DX2                !
 ! D3    D(8,1,2,3)           -179.6935         estimate D2E/DX2                !
 ! D4    D(8,1,2,4)             -1.0035         estimate D2E/DX2                !
 ! D5    D(14,1,2,3)            90.0441         estimate D2E/DX2                !
 ! D6    D(14,1,2,4)           -91.2659         estimate D2E/DX2                !
 ! D7    D(17,1,2,3)             0.3065         estimate D2E/DX2                !
 ! D8    D(17,1,2,4)           178.9965         estimate D2E/DX2                !
 ! D9    D(3,2,11,12)          180.0            estimate D2E/DX2                !
 ! D10   D(3,2,11,13)            1.31           estimate D2E/DX2                !
 ! D11   D(4,2,11,12)           -1.31           estimate D2E/DX2                !
 ! D12   D(4,2,11,13)          180.0            estimate D2E/DX2                !
 ! D13   D(2,1,5,6)              1.0568         estimate D2E/DX2                !
 ! D14   D(2,1,5,7)            178.8179         estimate D2E/DX2                !
 ! D15   D(8,1,5,6)             90.9351         estimate D2E/DX2                !
 ! D16   D(8,1,5,7)            -91.3038         estimate D2E/DX2                !
 ! D17   D(11,1,5,6)          -178.9432         estimate D2E/DX2                !
 ! D18   D(11,1,5,7)            -1.1821         estimate D2E/DX2                !
 ! D19   D(17,1,5,6)           -89.0649         estimate D2E/DX2                !
 ! D20   D(17,1,5,7)            88.6962         estimate D2E/DX2                !
 ! D21   D(6,5,14,15)          180.0            estimate D2E/DX2                !
 ! D22   D(6,5,14,16)            2.2388         estimate D2E/DX2                !
 ! D23   D(7,5,14,15)           -2.2388         estimate D2E/DX2                !
 ! D24   D(7,5,14,16)          180.0            estimate D2E/DX2                !
 ! D25   D(2,1,8,9)            -90.1358         estimate D2E/DX2                !
 ! D26   D(2,1,8,10)            90.8598         estimate D2E/DX2                !
 ! D27   D(5,1,8,9)            179.7093         estimate D2E/DX2                !
 ! D28   D(5,1,8,10)             0.7049         estimate D2E/DX2                !
 ! D29   D(11,1,8,9)            89.8642         estimate D2E/DX2                !
 ! D30   D(11,1,8,10)          -89.1402         estimate D2E/DX2                !
 ! D31   D(14,1,8,9)            -0.2907         estimate D2E/DX2                !
 ! D32   D(14,1,8,10)         -179.2951         estimate D2E/DX2                !
 ! D33   D(9,8,17,18)          180.0            estimate D2E/DX2                !
 ! D34   D(9,8,17,19)           -0.9956         estimate D2E/DX2                !
 ! D35   D(10,8,17,18)           0.9956         estimate D2E/DX2                !
 ! D36   D(10,8,17,19)         180.0            estimate D2E/DX2                !
 ! D37   D(5,1,11,12)          -90.0441         estimate D2E/DX2                !
 ! D38   D(5,1,11,13)           91.2659         estimate D2E/DX2                !
 ! D39   D(8,1,11,12)           -0.3065         estimate D2E/DX2                !
 ! D40   D(8,1,11,13)         -178.9965         estimate D2E/DX2                !
 ! D41   D(14,1,11,12)          89.9559         estimate D2E/DX2                !
 ! D42   D(14,1,11,13)         -88.7341         estimate D2E/DX2                !
 ! D43   D(17,1,11,12)         179.6935         estimate D2E/DX2                !
 ! D44   D(17,1,11,13)           1.0035         estimate D2E/DX2                !
 ! D45   D(2,1,14,15)          178.9432         estimate D2E/DX2                !
 ! D46   D(2,1,14,16)            1.1821         estimate D2E/DX2                !
 ! D47   D(8,1,14,15)           89.0649         estimate D2E/DX2                !
 ! D48   D(8,1,14,16)          -88.6962         estimate D2E/DX2                !
 ! D49   D(11,1,14,15)          -1.0568         estimate D2E/DX2                !
 ! D50   D(11,1,14,16)        -178.8179         estimate D2E/DX2                !
 ! D51   D(17,1,14,15)         -90.9351         estimate D2E/DX2                !
 ! D52   D(17,1,14,16)          91.3038         estimate D2E/DX2                !
 ! D53   D(2,1,17,18)          -89.8642         estimate D2E/DX2                !
 ! D54   D(2,1,17,19)           89.1402         estimate D2E/DX2                !
 ! D55   D(5,1,17,18)            0.2907         estimate D2E/DX2                !
 ! D56   D(5,1,17,19)          179.2951         estimate D2E/DX2                !
 ! D57   D(11,1,17,18)          90.1358         estimate D2E/DX2                !
 ! D58   D(11,1,17,19)         -90.8598         estimate D2E/DX2                !
 ! D59   D(14,1,17,18)        -179.7093         estimate D2E/DX2                !
 ! D60   D(14,1,17,19)          -0.7049         estimate D2E/DX2                !
 --------------------------------------------------------------------------------
 Trust Radius=3.00D-01 FncErr=1.00D-07 GrdErr=1.00D-06
 Number of steps in this run=    114 maximum allowed number of steps=    114.
 GradGradGradGradGradGradGradGradGradGradGradGradGradGradGradGradGradGrad

                          Input orientation:                          
 ---------------------------------------------------------------------
 Center     Atomic      Atomic             Coordinates (Angstroms)
 Number     Number       Type             X           Y           Z
 ---------------------------------------------------------------------
      1         28           0        0.000000    0.000000    0.000000
      2          8           0       -2.799907    0.016999    0.015247
      3          1           0       -3.372578   -0.758216    0.012366
      4          1           0       -3.360348    0.800691    0.042158
      5          8           0        0.022644   -0.023771    2.799808
      6          1           0       -0.751115   -0.038244    3.374248
      7          1           0        0.807972   -0.049401    3.358033
      8          8           0        0.011285    2.799739    0.036489
      9          1           0        0.011256    3.380134   -0.732914
     10          1           0        0.029492    3.352354    0.826009
     11          8           0        2.799907   -0.016999   -0.015247
     12          1           0        3.372578    0.758216   -0.012366
     13          1           0        3.360348   -0.800691   -0.042158
     14          8           0       -0.022644    0.023771   -2.799808
     15          1           0        0.751115    0.038244   -3.374248
     16          1           0       -0.807972    0.049401   -3.358033
     17          8           0       -0.011285   -2.799739   -0.036489
     18          1           0       -0.011256   -3.380134    0.732914
     19          1           0       -0.029492   -3.352354   -0.826009
 ---------------------------------------------------------------------
                    Distance matrix (angstroms):
                    1          2          3          4          5
     1  Ni   0.000000
     2  O    2.800000   0.000000
     3  H    3.456780   0.963804   0.000000
     4  H    3.454681   0.963842   1.559240   0.000000
     5  O    2.800000   3.965127   4.453849   4.441734   0.000000
     6  H    3.457048   3.934906   4.323502   4.314479   0.963791
     7  H    3.454221   4.918883   5.401194   5.393753   0.963853
     8  O    2.800000   3.955615   4.910209   3.919711   3.950731
     9  H    3.458699   4.446691   5.397380   4.315318   4.905795
    10  H    3.452744   4.448306   5.397488   4.314675   3.910774
    11  O    2.800000   5.600000   6.216891   6.214552   3.954462
    12  H    3.456780   6.216891   6.913559   6.733280   4.443184
    13  H    3.454681   6.214552   6.733280   6.909362   4.452038
    14  O    2.800000   3.954462   4.443184   4.452038   5.600000
    15  H    3.457048   4.909061   5.395215   5.399748   6.217192
    16  H    3.454221   3.917636   4.311500   4.317448   6.214038
    17  O    2.800000   3.963976   3.933001   4.917877   3.968844
    18  H    3.458699   4.453329   4.323440   5.401191   3.941874
    19  H    3.452744   4.442461   4.313775   5.394081   4.922268
                    6          7          8          9         10
     6  H    0.000000
     7  H    1.559211   0.000000
     8  O    4.447026   4.448030   0.000000
     9  H    5.397713   5.397436   0.963763   0.000000
    10  H    4.312659   4.311510   0.963876   1.559277   0.000000
    11  O    4.909061   3.917636   3.963976   4.453329   4.442461
    12  H    5.395215   4.311500   3.933001   4.323440   4.313775
    13  H    5.399748   4.317448   4.917877   5.401191   5.394081
    14  O    6.217192   6.214038   3.968844   3.941874   4.922268
    15  H    6.914097   6.733091   4.450430   4.323455   5.398724
    16  H    6.733091   6.908442   4.445033   4.319278   5.396021
    17  O    4.450430   4.445033   5.600000   6.219032   6.212393
    18  H    4.323455   4.319278   6.219032   6.917398   6.733256
    19  H    5.398724   5.396021   6.212393   6.733256   6.905488
                   11         12         13         14         15
    11  O    0.000000
    12  H    0.963804   0.000000
    13  H    0.963842   1.559240   0.000000
    14  O    3.965127   4.453849   4.441734   0.000000
    15  H    3.934906   4.323502   4.314479   0.963791   0.000000
    16  H    4.918883   5.401194   5.393753   0.963853   1.559211
    17  O    3.955615   4.910209   3.919711   3.950731   4.447026
    18  H    4.446691   5.397380   4.315318   4.905795   5.397713
    19  H    4.448306   5.397488   4.314675   3.910774   4.312659
                   16         17         18         19
    16  H    0.000000
    17  O    4.448030   0.000000
    18  H    5.397436   0.963763   0.000000
    19  H    4.311510   0.963876   1.559277   0.000000
 Stoichiometry    H12NiO6(2+,3)
 Framework group  CI[O(Ni),X(H12O6)]
 Deg. of freedom    24
 Full point group                 CI      NOp   2
 Largest Abelian subgroup         CI      NOp   2
 Largest concise Abelian subgroup CI      NOp   2
                         Standard orientation:                         
 ---------------------------------------------------------------------
 Center     Atomic      Atomic             Coordinates (Angstroms)
 Number     Number       Type             X           Y           Z
 ---------------------------------------------------------------------
      1         28           0        0.000000    0.000000    0.000000
      2          8           0       -2.799907    0.016999    0.015247
      3          1           0       -3.372578   -0.758216    0.012366
      4          1           0       -3.360348    0.800691    0.042158
      5          8           0        0.022644   -0.023771    2.799808
      6          1           0       -0.751115   -0.038244    3.374248
      7          1           0        0.807972   -0.049401    3.358033
      8          8           0        0.011285    2.799739    0.036489
      9          1           0        0.011256    3.380134   -0.732914
     10          1           0        0.029492    3.352354    0.826009
     11          8           0        2.799907   -0.016999   -0.015247
     12          1           0        3.372578    0.758216   -0.012366
     13          1           0        3.360348   -0.800691   -0.042158
     14          8           0       -0.022644    0.023771   -2.799808
     15          1           0        0.751115    0.038244   -3.374248
     16          1           0       -0.807972    0.049401   -3.358033
     17          8           0       -0.011285   -2.799739   -0.036489
     18          1           0       -0.011256   -3.380134    0.732914
     19          1           0       -0.029492   -3.352354   -0.826009
 ---------------------------------------------------------------------
 Rotational constants (GHZ):      0.8469850      0.8459251      0.8429436
 Standard basis: 6-311++G(2d,2p) (5D, 7F)
 There are   181 symmetry adapted cartesian basis functions of AG  symmetry.
 There are   188 symmetry adapted cartesian basis functions of AU  symmetry.
 There are   171 symmetry adapted basis functions of AG  symmetry.
 There are   176 symmetry adapted basis functions of AU  symmetry.
   347 basis functions,   500 primitive gaussians,   369 cartesian basis functions
    44 alpha electrons       42 beta electrons
       nuclear repulsion energy       541.4983847234 Hartrees.
 NAtoms=   19 NActive=   19 NUniq=   10 SFac= 3.61D+00 NAtFMM=   60 NAOKFM=F Big=F
 Integral buffers will be    131072 words long.
 Raffenetti 2 integral format.
 Two-electron integral symmetry is turned on.
 One-electron integrals computed using PRISM.
 NBasis=   347 RedAO= T EigKep=  4.47D-04  NBF=   171   176
 NBsUse=   347 1.00D-06 EigRej= -1.00D+00 NBFU=   171   176
 ExpMin= 1.39D-02 ExpMax= 2.85D+05 ExpMxC= 9.63D+03 IAcc=3 IRadAn=         5 AccDes= 0.00D+00
 Harris functional with IExCor= 1009 and IRadAn=       5 diagonalized for initial guess.
 HarFok:  IExCor= 1009 AccDes= 0.00D+00 IRadAn=         5 IDoV= 1 UseB2=F ITyADJ=14
 ICtDFT=  3500011 ScaDFX=  1.000000  1.000000  1.000000  1.000000
 FoFCou: FMM=F IPFlag=           0 FMFlag=      100000 FMFlg1=           0
         NFxFlg=           0 DoJE=T BraDBF=F KetDBF=T FulRan=T
         wScrn=  0.000000 ICntrl=     500 IOpCl=  0 I1Cent=   200000004 NGrid=           0
         NMat0=    1 NMatS0=      1 NMatT0=    0 NMatD0=    1 NMtDS0=    0 NMtDT0=    0
 Petite list used in FoFCou.
 Initial guess orbital symmetries:
 Alpha Orbitals:
       Occupied  (AG) (AG) (AU) (AU) (AU) (AG) (AU) (AU) (AU) (AG)
                 (AG) (AG) (AU) (AU) (AU) (AG) (AU) (AU) (AU) (AG)
                 (AG) (AU) (AG) (AG) (AU) (AU) (AG) (AG) (AU) (AU)
                 (AU) (AG) (AG) (AG) (AG) (AG) (AU) (AU) (AU) (AG)
                 (AG) (AG) (AG) (AG)
       Virtual   (AG) (AU) (AU) (AU) (AG) (AG) (AG) (AG) (AG) (AG)
                 (AU) (AU) (AU) (AU) (AU) (AU) (AG) (AG) (AG) (AG)
                 (AG) (AG) (AU) (AU) (AU) (AU) (AU) (AU) (AU) (AU)
                 (AU) (AG) (AG) (AG) (AG) (AG) (AG) (AG) (AU) (AU)
                 (AU) (AG) (AG) (AG) (AU) (AU) (AU) (AG) (AG) (AG)
                 (AU) (AU) (AU) (AU) (AU) (AU) (AG) (AG) (AG) (AG)
                 (AG) (AG) (AG) (AG) (AG) (AU) (AU) (AU) (AG) (AG)
                 (AU) (AU) (AU) (AU) (AU) (AU) (AG) (AG) (AG) (AG)
                 (AU) (AU) (AG) (AG) (AU) (AG) (AG) (AG) (AG) (AU)
                 (AU) (AU) (AU) (AU) (AU) (AG) (AG) (AG) (AU) (AU)
                 (AU) (AU) (AU) (AU) (AG) (AG) (AG) (AU) (AU) (AU)
                 (AG) (AG) (AG) (AG) (AG) (AG) (AG) (AU) (AU) (AU)
                 (AG) (AG) (AG) (AG) (AG) (AU) (AU) (AU) (AG) (AG)
                 (AU) (AU) (AU) (AG) (AG) (AG) (AG) (AU) (AU) (AU)
                 (AG) (AG) (AG) (AU) (AU) (AU) (AG) (AG) (AG) (AG)
                 (AG) (AU) (AU) (AU) (AU) (AU) (AU) (AG) (AU) (AU)
                 (AU) (AU) (AG) (AG) (AU) (AU) (AU) (AG) (AG) (AG)
                 (AG) (AG) (AU) (AU) (AU) (AG) (AU) (AU) (AU) (AG)
                 (AG) (AU) (AU) (AU) (AG) (AG) (AG) (AG) (AU) (AU)
                 (AU) (AG) (AU) (AU) (AU) (AG) (AG) (AG) (AU) (AU)
                 (AU) (AG) (AG) (AG) (AG) (AG) (AG) (AU) (AU) (AU)
                 (AG) (AG) (AG) (AU) (AU) (AU) (AU) (AU) (AU) (AG)
                 (AG) (AG) (AG) (AG) (AU) (AU) (AU) (AG) (AU) (AU)
                 (AU) (AG) (AG) (AG) (AG) (AU) (AU) (AU) (AG) (AG)
                 (AG) (AG) (AG) (AU) (AU) (AU) (AG) (AG) (AG) (AU)
                 (AU) (AU) (AG) (AG) (AG) (AU) (AU) (AU) (AG) (AG)
                 (AG) (AG) (AG) (AU) (AU) (AU) (AG) (AG) (AG) (AU)
                 (AU) (AU) (AG) (AG) (AG) (AU) (AU) (AU) (AU) (AU)
                 (AU) (AU) (AG) (AG) (AG) (AU) (AU) (AU) (AU) (AU)
                 (AU) (AG) (AU) (AU) (AU) (AG) (AG) (AU) (AU) (AU)
                 (AG) (AG) (AG)
 Beta  Orbitals:
       Occupied  (AG) (AG) (AU) (AU) (AU) (AG) (AU) (AU) (AU) (AG)
                 (AG) (AG) (AU) (AU) (AU) (AG) (AU) (AU) (AU) (AG)
                 (AG) (AU) (AG) (AG) (AU) (AU) (AG) (AG) (AU) (AU)
                 (AU) (AG) (AG) (AG) (AG) (AG) (AU) (AU) (AU) (AG)
                 (AG) (AG)
       Virtual   (AG) (AG) (AG) (AU) (AU) (AU) (AG) (AG) (AG) (AG)
                 (AG) (AG) (AU) (AU) (AU) (AU) (AU) (AU) (AG) (AG)
                 (AG) (AG) (AG) (AG) (AU) (AU) (AU) (AU) (AU) (AU)
                 (AU) (AU) (AU) (AG) (AG) (AG) (AG) (AG) (AG) (AG)
                 (AU) (AU) (AU) (AG) (AG) (AG) (AU) (AU) (AU) (AG)
                 (AG) (AG) (AU) (AU) (AU) (AU) (AU) (AU) (AG) (AG)
                 (AG) (AG) (AG) (AG) (AG) (AG) (AG) (AU) (AU) (AU)
                 (AG) (AG) (AU) (AU) (AU) (AU) (AU) (AU) (AG) (AG)
                 (AG) (AG) (AU) (AU) (AG) (AG) (AU) (AG) (AG) (AG)
                 (AG) (AU) (AU) (AU) (AU) (AU) (AU) (AG) (AG) (AG)
                 (AU) (AU) (AU) (AU) (AU) (AU) (AG) (AG) (AG) (AU)
                 (AU) (AU) (AG) (AG) (AG) (AG) (AG) (AG) (AG) (AU)
                 (AU) (AU) (AG) (AG) (AG) (AG) (AG) (AU) (AU) (AU)
                 (AG) (AG) (AU) (AU) (AU) (AG) (AG) (AG) (AG) (AU)
                 (AU) (AU) (AG) (AG) (AG) (AU) (AU) (AU) (AG) (AG)
                 (AG) (AG) (AG) (AU) (AU) (AU) (AU) (AU) (AU) (AG)
                 (AU) (AU) (AU) (AU) (AG) (AG) (AU) (AU) (AU) (AG)
                 (AG) (AG) (AG) (AG) (AU) (AU) (AU) (AG) (AU) (AU)
                 (AU) (AG) (AG) (AU) (AU) (AU) (AG) (AG) (AG) (AG)
                 (AU) (AU) (AU) (AG) (AU) (AU) (AU) (AG) (AG) (AG)
                 (AU) (AU) (AU) (AG) (AG) (AG) (AG) (AG) (AG) (AU)
                 (AU) (AU) (AG) (AG) (AG) (AU) (AU) (AU) (AU) (AU)
                 (AU) (AG) (AG) (AG) (AG) (AG) (AU) (AU) (AU) (AG)
                 (AU) (AU) (AU) (AG) (AG) (AG) (AG) (AU) (AU) (AU)
                 (AG) (AG) (AG) (AG) (AG) (AU) (AU) (AU) (AG) (AG)
                 (AG) (AU) (AU) (AU) (AG) (AG) (AG) (AU) (AU) (AU)
                 (AG) (AG) (AG) (AG) (AG) (AU) (AU) (AU) (AG) (AG)
                 (AG) (AU) (AU) (AU) (AG) (AG) (AG) (AU) (AU) (AU)
                 (AU) (AU) (AU) (AU) (AG) (AG) (AG) (AU) (AU) (AU)
                 (AU) (AU) (AU) (AG) (AU) (AU) (AU) (AG) (AG) (AU)
                 (AU) (AU) (AG) (AG) (AG)
 The electronic state of the initial guess is 3-AG.
 Initial guess <Sx>= 0.0000 <Sy>= 0.0000 <Sz>= 1.0000 <S**2>= 2.0000 S= 1.0000
 Keep R1 and R2 ints in memory in symmetry-blocked form, NReq=2734803760.
 Requested convergence on RMS density matrix=1.00D-08 within 128 cycles.
 Requested convergence on MAX density matrix=1.00D-06.
 Requested convergence on             energy=1.00D-06.
 No special actions if energy rises.
 SCF Done:  E(UM062X) =  -1966.16099837     A.U. after   22 cycles
            NFock= 22  Conv=0.70D-08     -V/T= 2.0019
 <Sx>= 0.0000 <Sy>= 0.0000 <Sz>= 1.0000 <S**2>= 2.0035 S= 1.0012
 <L.S>= 0.000000000000E+00
 Annihilation of the first spin contaminant:
 S**2 before annihilation     2.0035,   after     2.0000

 **********************************************************************

            Population analysis using the SCF density.

 **********************************************************************

 Orbital symmetries:
 Alpha Orbitals:
       Occupied  (AG) (AG) (AU) (AU) (AU) (AU) (AG) (AU) (AG) (AU)
                 (AG) (AG) (AU) (AU) (AU) (AG) (AU) (AU) (AU) (AG)
                 (AG) (AG) (AG) (AG) (AG) (AG) (AU) (AU) (AU) (AG)
                 (AG) (AG) (AG) (AU) (AU) (AU) (AG) (AG) (AU) (AU)
                 (AU) (AG) (AG) (AG)
       Virtual   (AG) (AU) (AU) (AU) (AG) (AG) (AG) (AU) (AU) (AU)
                 (AG) (AG) (AG) (AU) (AU) (AU) (AG) (AG) (AG) (AG)
                 (AU) (AU) (AU) (AG) (AG) (AG) (AU) (AU) (AU) (AU)
                 (AU) (AU) (AG) (AG) (AG) (AG) (AG) (AU) (AU) (AU)
                 (AG) (AG) (AG) (AG) (AU) (AU) (AU) (AG) (AG) (AG)
                 (AU) (AU) (AU) (AG) (AG) (AG) (AU) (AU) (AU) (AG)
                 (AG) (AG) (AG) (AG) (AG) (AU) (AU) (AU) (AG) (AG)
                 (AU) (AU) (AU) (AG) (AU) (AU) (AU) (AG) (AG) (AG)
                 (AU) (AU) (AU) (AG) (AG) (AG) (AG) (AG) (AG) (AU)
                 (AU) (AU) (AU) (AU) (AU) (AG) (AG) (AG) (AU) (AU)
                 (AU) (AU) (AU) (AU) (AG) (AG) (AG) (AU) (AU) (AU)
                 (AG) (AG) (AG) (AG) (AG) (AG) (AG) (AG) (AG) (AU)
                 (AU) (AU) (AG) (AG) (AG) (AU) (AU) (AU) (AG) (AG)
                 (AU) (AU) (AU) (AG) (AG) (AG) (AG) (AU) (AU) (AU)
                 (AU) (AU) (AU) (AU) (AG) (AG) (AG) (AU) (AU) (AU)
                 (AG) (AG) (AU) (AU) (AU) (AG) (AG) (AG) (AU) (AU)
                 (AU) (AG) (AG) (AG) (AU) (AU) (AU) (AG) (AG) (AG)
                 (AU) (AU) (AU) (AU) (AG) (AG) (AU) (AU) (AG) (AG)
                 (AG) (AU) (AU) (AU) (AG) (AG) (AG) (AG) (AU) (AU)
                 (AU) (AG) (AU) (AU) (AU) (AG) (AG) (AG) (AU) (AU)
                 (AU) (AG) (AG) (AG) (AG) (AG) (AG) (AU) (AU) (AU)
                 (AU) (AU) (AU) (AG) (AG) (AG) (AG) (AG) (AG) (AU)
                 (AU) (AU) (AG) (AG) (AU) (AU) (AU) (AG) (AU) (AU)
                 (AU) (AG) (AG) (AG) (AG) (AU) (AU) (AU) (AG) (AG)
                 (AG) (AG) (AG) (AU) (AU) (AU) (AG) (AG) (AG) (AG)
                 (AG) (AU) (AU) (AU) (AG) (AG) (AG) (AU) (AU) (AU)
                 (AG) (AG) (AG) (AU) (AU) (AU) (AG) (AG) (AG) (AU)
                 (AU) (AU) (AU) (AU) (AU) (AU) (AG) (AG) (AG) (AU)
                 (AU) (AU) (AG) (AG) (AG) (AU) (AU) (AU) (AU) (AU)
                 (AU) (AG) (AU) (AU) (AU) (AG) (AG) (AU) (AU) (AU)
                 (AG) (AG) (AG)
 Beta  Orbitals:
       Occupied  (AG) (AG) (AU) (AU) (AU) (AU) (AG) (AU) (AG) (AU)
                 (AG) (AG) (AU) (AU) (AU) (AG) (AU) (AU) (AU) (AG)
                 (AG) (AG) (AG) (AG) (AU) (AU) (AU) (AG) (AG) (AG)
                 (AG) (AU) (AU) (AU) (AG) (AG) (AU) (AU) (AU) (AG)
                 (AG) (AG)
       Virtual   (AG) (AG) (AG) (AU) (AU) (AU) (AG) (AG) (AG) (AU)
                 (AU) (AU) (AG) (AG) (AG) (AU) (AU) (AU) (AG) (AG)
                 (AG) (AG) (AU) (AU) (AU) (AG) (AG) (AG) (AU) (AU)
                 (AU) (AU) (AU) (AU) (AG) (AG) (AG) (AG) (AG) (AU)
                 (AU) (AU) (AG) (AG) (AG) (AG) (AU) (AU) (AU) (AG)
                 (AG) (AG) (AU) (AU) (AU) (AG) (AG) (AG) (AU) (AU)
                 (AU) (AG) (AG) (AG) (AG) (AG) (AG) (AU) (AU) (AU)
                 (AG) (AG) (AU) (AU) (AU) (AG) (AU) (AU) (AU) (AG)
                 (AG) (AG) (AU) (AU) (AU) (AG) (AG) (AG) (AG) (AU)
                 (AU) (AU) (AG) (AG) (AU) (AU) (AU) (AG) (AG) (AG)
                 (AU) (AU) (AU) (AU) (AU) (AU) (AG) (AG) (AG) (AU)
                 (AU) (AU) (AG) (AG) (AG) (AG) (AG) (AG) (AG) (AU)
                 (AU) (AU) (AG) (AG) (AG) (AG) (AG) (AU) (AU) (AU)
                 (AG) (AG) (AU) (AU) (AU) (AG) (AG) (AG) (AG) (AU)
                 (AU) (AU) (AU) (AU) (AU) (AU) (AG) (AG) (AG) (AU)
                 (AU) (AU) (AU) (AU) (AU) (AG) (AG) (AG) (AG) (AG)
                 (AU) (AU) (AU) (AG) (AG) (AG) (AU) (AU) (AU) (AG)
                 (AG) (AG) (AU) (AU) (AU) (AU) (AU) (AU) (AG) (AG)
                 (AG) (AG) (AG) (AU) (AU) (AU) (AG) (AG) (AG) (AG)
                 (AU) (AU) (AU) (AG) (AU) (AU) (AU) (AG) (AG) (AG)
                 (AU) (AU) (AU) (AG) (AG) (AG) (AG) (AG) (AG) (AU)
                 (AU) (AU) (AU) (AU) (AU) (AG) (AG) (AG) (AG) (AG)
                 (AG) (AU) (AU) (AU) (AG) (AG) (AU) (AU) (AU) (AG)
                 (AU) (AU) (AU) (AG) (AG) (AG) (AG) (AU) (AU) (AU)
                 (AG) (AG) (AG) (AG) (AG) (AU) (AU) (AU) (AG) (AG)
                 (AG) (AU) (AU) (AU) (AG) (AG) (AG) (AU) (AU) (AU)
                 (AG) (AG) (AG) (AG) (AG) (AU) (AU) (AU) (AG) (AG)
                 (AG) (AU) (AU) (AU) (AU) (AU) (AU) (AU) (AG) (AG)
                 (AG) (AU) (AU) (AU) (AG) (AG) (AG) (AU) (AU) (AU)
                 (AU) (AU) (AU) (AG) (AU) (AU) (AU) (AG) (AG) (AU)
                 (AU) (AU) (AG) (AG) (AG)
 The electronic state is 3-AG.
 Alpha  occ. eigenvalues -- -302.36655 -36.96918 -32.40903 -32.40903 -32.40902
 Alpha  occ. eigenvalues --  -19.92498 -19.92498 -19.92496 -19.92496 -19.92496
 Alpha  occ. eigenvalues --  -19.92496  -4.85258  -3.43370  -3.43370  -3.43369
 Alpha  occ. eigenvalues --   -1.42608  -1.42552  -1.42551  -1.42550  -1.42528
 Alpha  occ. eigenvalues --   -1.42527  -1.03405  -1.03405  -0.99920  -0.99920
 Alpha  occ. eigenvalues --   -0.99920  -0.90612  -0.90611  -0.90609  -0.90596
 Alpha  occ. eigenvalues --   -0.90596  -0.90594  -0.80240  -0.78275  -0.78268
 Alpha  occ. eigenvalues --   -0.78250  -0.77341  -0.77339  -0.69690  -0.69671
 Alpha  occ. eigenvalues --   -0.69664  -0.69663  -0.69660  -0.69657
 Alpha virt. eigenvalues --   -0.42626  -0.26471  -0.26449  -0.26445  -0.23867
 Alpha virt. eigenvalues --   -0.20070  -0.20070  -0.19265  -0.19245  -0.19241
 Alpha virt. eigenvalues --   -0.17787  -0.17779  -0.17773  -0.15706  -0.15704
 Alpha virt. eigenvalues --   -0.15699  -0.10607  -0.09737  -0.09708  -0.09630
 Alpha virt. eigenvalues --   -0.07672  -0.07663  -0.07648  -0.07496  -0.07495
 Alpha virt. eigenvalues --   -0.05541  -0.04713  -0.04713  -0.04710  -0.03225
 Alpha virt. eigenvalues --   -0.03223  -0.03213  -0.01330  -0.01328  -0.01296
 Alpha virt. eigenvalues --   -0.01293  -0.01292   0.00063   0.00065   0.00072
 Alpha virt. eigenvalues --    0.01612   0.02112   0.02127   0.02162   0.04515
 Alpha virt. eigenvalues --    0.04520   0.04521   0.06539   0.10704   0.10705
 Alpha virt. eigenvalues --    0.11737   0.11886   0.11941   0.15961   0.16021
 Alpha virt. eigenvalues --    0.16174   0.17095   0.17099   0.17114   0.18689
 Alpha virt. eigenvalues --    0.18691   0.27790   0.31062   0.31095   0.31198
 Alpha virt. eigenvalues --    0.34409   0.34439   0.34447   0.34706   0.34707
 Alpha virt. eigenvalues --    0.37957   0.37990   0.38017   0.43155   0.43614
 Alpha virt. eigenvalues --    0.43625   0.43649   0.44612   0.44662   0.44681
 Alpha virt. eigenvalues --    0.54438   0.54496   0.54645   0.55958   0.55985
 Alpha virt. eigenvalues --    0.56005   0.60877   0.61130   0.61137   0.61166
 Alpha virt. eigenvalues --    0.61203   0.61215   0.69335   0.69543   0.69612
 Alpha virt. eigenvalues --    0.70619   0.70676   0.70809   0.71867   0.71945
 Alpha virt. eigenvalues --    0.71987   0.76397   0.76671   0.76784   0.80700
 Alpha virt. eigenvalues --    0.80706   0.80763   0.85121   0.85235   0.85517
 Alpha virt. eigenvalues --    0.87641   0.87753   0.87818   0.88067   0.90385
 Alpha virt. eigenvalues --    0.90399   1.08915   1.10025   1.10028   1.10149
 Alpha virt. eigenvalues --    1.10167   1.10174   1.19281   1.19345   1.19516
 Alpha virt. eigenvalues --    1.21450   1.21515   1.21522   1.27406   1.27411
 Alpha virt. eigenvalues --    1.31003   1.31162   1.31222   1.32819   1.33989
 Alpha virt. eigenvalues --    1.34222   1.34307   1.47327   1.47431   1.47475
 Alpha virt. eigenvalues --    1.51017   1.51079   1.51106   1.51160   1.52841
 Alpha virt. eigenvalues --    1.53004   1.53102   1.53271   1.53296   1.53372
 Alpha virt. eigenvalues --    1.54843   1.54996   1.55082   1.55084   1.55163
 Alpha virt. eigenvalues --    1.56034   1.56098   1.56187   1.68344   1.68351
 Alpha virt. eigenvalues --    1.68376   1.70547   1.70550   1.72857   1.73499
 Alpha virt. eigenvalues --    1.73506   1.73528   1.98372   1.98707   1.98845
 Alpha virt. eigenvalues --    2.00637   2.00796   2.00875   2.05607   2.05612
 Alpha virt. eigenvalues --    2.05615   2.05647   2.05664   2.06808   2.26366
 Alpha virt. eigenvalues --    2.26370   2.27132   2.27162   2.27252   2.31386
 Alpha virt. eigenvalues --    2.61174   2.61187   2.61192   2.61476   2.61492
 Alpha virt. eigenvalues --    2.61497   3.03490   3.44977   3.44994   3.44996
 Alpha virt. eigenvalues --    3.45384   3.45393   3.45420   3.52029   3.52033
 Alpha virt. eigenvalues --    3.52049   3.53500   3.53519   3.53536   3.54467
 Alpha virt. eigenvalues --    3.54514   3.54638   3.56425   3.56440   3.56441
 Alpha virt. eigenvalues --    3.77292   3.77309   3.77315   3.79946   3.82397
 Alpha virt. eigenvalues --    3.82407   3.84705   3.84760   3.84898   3.86383
 Alpha virt. eigenvalues --    3.86403   3.86409   3.95567   3.95568   3.97098
 Alpha virt. eigenvalues --    3.97109   3.97122   3.98403   4.84593   4.84690
 Alpha virt. eigenvalues --    4.84953   4.86595   4.86620   4.86628   5.35832
 Alpha virt. eigenvalues --    5.37408   5.37489   5.37516   5.41169   5.41174
 Alpha virt. eigenvalues --    5.98057   5.98078   5.98106   5.98119   5.98119
 Alpha virt. eigenvalues --    5.98135   6.36042   6.36163   6.36210   6.45885
 Alpha virt. eigenvalues --    6.45895   6.55269   6.55287   6.55339   6.56711
 Alpha virt. eigenvalues --    6.56791   6.56792   6.58311   6.58314   6.58315
 Alpha virt. eigenvalues --    6.58959   6.58997   6.59099   6.68352   6.68367
 Alpha virt. eigenvalues --    6.68412   6.69049   6.71356   6.71359   6.75592
 Alpha virt. eigenvalues --    6.75600   6.75616   6.76541   6.76542   6.76543
 Alpha virt. eigenvalues --    6.76618   6.97882   6.97886   6.98427   6.98443
 Alpha virt. eigenvalues --    6.98459   6.98465   7.13747   7.13793   7.13811
 Alpha virt. eigenvalues --    7.14033   7.14049   7.14057   8.36125   8.36343
 Alpha virt. eigenvalues --    8.36432  29.33465  35.96186  35.96342  35.96407
 Alpha virt. eigenvalues --   49.71891  49.71892  49.74205  49.74249  49.74266
 Alpha virt. eigenvalues --   49.76135 161.84692 844.30770
  Beta  occ. eigenvalues -- -302.36775 -36.90471 -32.35656 -32.35656 -32.35656
  Beta  occ. eigenvalues --  -19.92455 -19.92455 -19.92454 -19.92454 -19.92453
  Beta  occ. eigenvalues --  -19.92453  -4.75557  -3.30263  -3.30262  -3.30261
  Beta  occ. eigenvalues --   -1.42515  -1.42457  -1.42455  -1.42455  -1.42429
  Beta  occ. eigenvalues --   -1.42429  -0.92967  -0.92966  -0.92965  -0.90565
  Beta  occ. eigenvalues --   -0.90564  -0.90563  -0.90508  -0.90508  -0.90506
  Beta  occ. eigenvalues --   -0.80079  -0.78021  -0.78013  -0.77993  -0.77653
  Beta  occ. eigenvalues --   -0.77652  -0.69623  -0.69601  -0.69593  -0.69588
  Beta  occ. eigenvalues --   -0.69585  -0.69582
  Beta virt. eigenvalues --   -0.45375  -0.45374  -0.41778  -0.26509  -0.26487
  Beta virt. eigenvalues --   -0.26483  -0.23722  -0.20013  -0.20013  -0.19237
  Beta virt. eigenvalues --   -0.19217  -0.19212  -0.17757  -0.17749  -0.17742
  Beta virt. eigenvalues --   -0.15699  -0.15697  -0.15692  -0.10579  -0.09712
  Beta virt. eigenvalues --   -0.09684  -0.09607  -0.07506  -0.07496  -0.07476
  Beta virt. eigenvalues --   -0.07434  -0.07433  -0.05085  -0.04715  -0.04714
  Beta virt. eigenvalues --   -0.04711  -0.02919  -0.02917  -0.02910  -0.01306
  Beta virt. eigenvalues --   -0.01305  -0.01302  -0.01235  -0.01234   0.00080
  Beta virt. eigenvalues --    0.00082   0.00091   0.01643   0.02058   0.02071
  Beta virt. eigenvalues --    0.02103   0.04526   0.04532   0.04533   0.06579
  Beta virt. eigenvalues --    0.11011   0.11013   0.11743   0.11895   0.11950
  Beta virt. eigenvalues --    0.15674   0.15738   0.15898   0.17138   0.17143
  Beta virt. eigenvalues --    0.17160   0.20648   0.20650   0.28181   0.31094
  Beta virt. eigenvalues --    0.31127   0.31230   0.34434   0.34465   0.34473
  Beta virt. eigenvalues --    0.34746   0.34747   0.37977   0.38010   0.38038
  Beta virt. eigenvalues --    0.43279   0.43608   0.43619   0.43643   0.44608
  Beta virt. eigenvalues --    0.44658   0.44677   0.54511   0.54568   0.54713
  Beta virt. eigenvalues --    0.55965   0.55993   0.56012   0.60867   0.61111
  Beta virt. eigenvalues --    0.61143   0.61154   0.61373   0.61379   0.69214
  Beta virt. eigenvalues --    0.69426   0.69497   0.70671   0.70728   0.70861
  Beta virt. eigenvalues --    0.71965   0.72045   0.72087   0.76415   0.76686
  Beta virt. eigenvalues --    0.76798   0.80703   0.80709   0.80767   0.85187
  Beta virt. eigenvalues --    0.85300   0.85581   0.87642   0.87886   0.87968
  Beta virt. eigenvalues --    0.88026   0.90964   0.90976   1.08963   1.10129
  Beta virt. eigenvalues --    1.10146   1.10153   1.10629   1.10632   1.19366
  Beta virt. eigenvalues --    1.19431   1.19601   1.21483   1.21548   1.21555
  Beta virt. eigenvalues --    1.28100   1.28103   1.31043   1.31203   1.31264
  Beta virt. eigenvalues --    1.32878   1.36150   1.36382   1.36464   1.50009
  Beta virt. eigenvalues --    1.50210   1.50296   1.51694   1.51709   1.51725
  Beta virt. eigenvalues --    1.51763   1.53216   1.53264   1.53279   1.54796
  Beta virt. eigenvalues --    1.54820   1.54896   1.55092   1.55094   1.55187
  Beta virt. eigenvalues --    1.56159   1.56194   1.56345   1.58965   1.59033
  Beta virt. eigenvalues --    1.68537   1.68545   1.68578   1.71349   1.71352
  Beta virt. eigenvalues --    1.73050   1.74106   1.74111   1.74129   1.98455
  Beta virt. eigenvalues --    1.98792   1.98931   2.00807   2.00969   2.01048
  Beta virt. eigenvalues --    2.05772   2.05806   2.05820   2.05821   2.05823
  Beta virt. eigenvalues --    2.06908   2.26400   2.26405   2.27157   2.27188
  Beta virt. eigenvalues --    2.27277   2.31405   2.61191   2.61205   2.61210
  Beta virt. eigenvalues --    2.61495   2.61512   2.61517   3.09575   3.44979
  Beta virt. eigenvalues --    3.44996   3.44998   3.45385   3.45395   3.45422
  Beta virt. eigenvalues --    3.52032   3.52037   3.52052   3.53508   3.53527
  Beta virt. eigenvalues --    3.53544   3.54466   3.54514   3.54638   3.56431
  Beta virt. eigenvalues --    3.56445   3.56447   3.77302   3.77319   3.77325
  Beta virt. eigenvalues --    3.79983   3.82438   3.82449   3.84739   3.84795
  Beta virt. eigenvalues --    3.84933   3.86418   3.86438   3.86444   3.95582
  Beta virt. eigenvalues --    3.95583   3.97120   3.97130   3.97143   3.98485
  Beta virt. eigenvalues --    4.84671   4.84768   4.85031   4.86676   4.86702
  Beta virt. eigenvalues --    4.86710   5.36015   5.37597   5.37678   5.37705
  Beta virt. eigenvalues --    5.41327   5.41332   5.98094   5.98115   5.98143
  Beta virt. eigenvalues --    5.98159   5.98159   5.98175   6.40399   6.40524
  Beta virt. eigenvalues --    6.40566   6.55397   6.55415   6.55471   6.57008
  Beta virt. eigenvalues --    6.57063   6.57095   6.58368   6.58370   6.58371
  Beta virt. eigenvalues --    6.59204   6.59241   6.59365   6.62920   6.62941
  Beta virt. eigenvalues --    6.68552   6.68567   6.68609   6.69205   6.74435
  Beta virt. eigenvalues --    6.74438   6.81515   6.82454   6.82457   6.82462
  Beta virt. eigenvalues --    6.85267   6.85274   6.85277   6.98000   6.98003
  Beta virt. eigenvalues --    6.98483   6.99298   6.99302   6.99306   7.13854
  Beta virt. eigenvalues --    7.13900   7.13918   7.14225   7.14239   7.14246
  Beta virt. eigenvalues --    8.44626   8.44841   8.44928  29.45215  36.05112
  Beta virt. eigenvalues --   36.05271  36.05336  49.71871  49.71872  49.74185
  Beta virt. eigenvalues --   49.74229  49.74247  49.76116 161.84584 844.30331
          Condensed to atoms (all electrons):
               1          2          3          4          5          6
     1  Ni  26.311532   0.102087  -0.000483  -0.000475   0.102130  -0.000503
     2  O    0.102087   7.828340   0.296743   0.296944  -0.001770  -0.000069
     3  H   -0.000483   0.296743   0.381130  -0.011215  -0.000113  -0.000114
     4  H   -0.000475   0.296944  -0.011215   0.380986  -0.000121  -0.000124
     5  O    0.102130  -0.001770  -0.000113  -0.000121   7.828230   0.296720
     6  H   -0.000503  -0.000069  -0.000114  -0.000124   0.296720   0.381162
     7  H   -0.000480  -0.000117   0.000020   0.000019   0.296959  -0.011206
     8  O    0.102081  -0.001822  -0.000111  -0.000053  -0.001853  -0.000120
     9  H   -0.000502  -0.000120   0.000017  -0.000122  -0.000108   0.000017
    10  H   -0.000471  -0.000116   0.000020  -0.000120  -0.000044  -0.000122
    11  O    0.102087   0.000051   0.000006   0.000005  -0.001832  -0.000110
    12  H   -0.000483   0.000006   0.000010  -0.000007  -0.000123   0.000017
    13  H   -0.000475   0.000005  -0.000007   0.000010  -0.000114   0.000020
    14  O    0.102130  -0.001832  -0.000123  -0.000114   0.000050   0.000006
    15  H   -0.000503  -0.000110   0.000017   0.000020   0.000006   0.000010
    16  H   -0.000480  -0.000050  -0.000124  -0.000117   0.000005  -0.000007
    17  O    0.102081  -0.001775  -0.000066  -0.000116  -0.001749  -0.000114
    18  H   -0.000502  -0.000114  -0.000115   0.000019  -0.000076  -0.000116
    19  H   -0.000471  -0.000120  -0.000124   0.000020  -0.000120   0.000020
               7          8          9         10         11         12
     1  Ni  -0.000480   0.102081  -0.000502  -0.000471   0.102087  -0.000483
     2  O   -0.000117  -0.001822  -0.000120  -0.000116   0.000051   0.000006
     3  H    0.000020  -0.000111   0.000017   0.000020   0.000006   0.000010
     4  H    0.000019  -0.000053  -0.000122  -0.000120   0.000005  -0.000007
     5  O    0.296959  -0.001853  -0.000108  -0.000044  -0.001832  -0.000123
     6  H   -0.011206  -0.000120   0.000017  -0.000122  -0.000110   0.000017
     7  H    0.381008  -0.000117   0.000019  -0.000121  -0.000050  -0.000124
     8  O   -0.000117   7.828349   0.296649   0.297025  -0.001775  -0.000066
     9  H    0.000019   0.296649   0.381115  -0.011210  -0.000114  -0.000115
    10  H   -0.000121   0.297025  -0.011210   0.381010  -0.000120  -0.000124
    11  O   -0.000050  -0.001775  -0.000114  -0.000120   7.828340   0.296743
    12  H   -0.000124  -0.000066  -0.000115  -0.000124   0.296743   0.381130
    13  H   -0.000117  -0.000116   0.000019   0.000020   0.296944  -0.011215
    14  O    0.000005  -0.001749  -0.000076  -0.000120  -0.001770  -0.000113
    15  H   -0.000007  -0.000114  -0.000116   0.000020  -0.000069  -0.000114
    16  H    0.000010  -0.000117  -0.000121   0.000020  -0.000117   0.000020
    17  O   -0.000117   0.000051   0.000006   0.000005  -0.001822  -0.000111
    18  H   -0.000121   0.000006   0.000010  -0.000007  -0.000120   0.000017
    19  H    0.000020   0.000005  -0.000007   0.000010  -0.000116   0.000020
              13         14         15         16         17         18
     1  Ni  -0.000475   0.102130  -0.000503  -0.000480   0.102081  -0.000502
     2  O    0.000005  -0.001832  -0.000110  -0.000050  -0.001775  -0.000114
     3  H   -0.000007  -0.000123   0.000017  -0.000124  -0.000066  -0.000115
     4  H    0.000010  -0.000114   0.000020  -0.000117  -0.000116   0.000019
     5  O   -0.000114   0.000050   0.000006   0.000005  -0.001749  -0.000076
     6  H    0.000020   0.000006   0.000010  -0.000007  -0.000114  -0.000116
     7  H   -0.000117   0.000005  -0.000007   0.000010  -0.000117  -0.000121
     8  O   -0.000116  -0.001749  -0.000114  -0.000117   0.000051   0.000006
     9  H    0.000019  -0.000076  -0.000116  -0.000121   0.000006   0.000010
    10  H    0.000020  -0.000120   0.000020   0.000020   0.000005  -0.000007
    11  O    0.296944  -0.001770  -0.000069  -0.000117  -0.001822  -0.000120
    12  H   -0.011215  -0.000113  -0.000114   0.000020  -0.000111   0.000017
    13  H    0.380986  -0.000121  -0.000124   0.000019  -0.000053  -0.000122
    14  O   -0.000121   7.828230   0.296720   0.296959  -0.001853  -0.000108
    15  H   -0.000124   0.296720   0.381162  -0.011206  -0.000120   0.000017
    16  H    0.000019   0.296959  -0.011206   0.381008  -0.000117   0.000019
    17  O   -0.000053  -0.001853  -0.000120  -0.000117   7.828349   0.296649
    18  H   -0.000122  -0.000108   0.000017   0.000019   0.296649   0.381115
    19  H   -0.000120  -0.000044  -0.000122  -0.000121   0.297025  -0.011210
              19
     1  Ni  -0.000471
     2  O   -0.000120
     3  H   -0.000124
     4  H    0.000020
     5  O   -0.000120
     6  H    0.000020
     7  H    0.000020
     8  O    0.000005
     9  H   -0.000007
    10  H    0.000010
    11  O   -0.000116
    12  H    0.000020
    13  H   -0.000120
    14  O   -0.000044
    15  H   -0.000122
    16  H   -0.000121
    17  O    0.297025
    18  H   -0.011210
    19  H    0.381010
          Atomic-Atomic Spin Densities.
               1          2          3          4          5          6
     1  Ni   1.948779  -0.008779   0.000847   0.000845  -0.008782   0.000847
     2  O   -0.008779   0.024091  -0.001699  -0.001662   0.000167   0.000005
     3  H    0.000847  -0.001699   0.001376   0.000803   0.000033  -0.000017
     4  H    0.000845  -0.001662   0.000803   0.001325   0.000033  -0.000017
     5  O   -0.008782   0.000167   0.000033   0.000033   0.024102  -0.001705
     6  H    0.000847   0.000005  -0.000017  -0.000017  -0.001705   0.001385
     7  H    0.000846   0.000045  -0.000009  -0.000009  -0.001657   0.000803
     8  O   -0.008780   0.000151   0.000043   0.000005   0.000142   0.000035
     9  H    0.000848   0.000034  -0.000009  -0.000017   0.000042  -0.000009
    10  H    0.000845   0.000035  -0.000009  -0.000017   0.000005  -0.000016
    11  O   -0.008779   0.000121   0.000008   0.000008   0.000148   0.000043
    12  H    0.000847   0.000008  -0.000002  -0.000001   0.000034  -0.000009
    13  H    0.000845   0.000008  -0.000001  -0.000002   0.000035  -0.000009
    14  O   -0.008782   0.000148   0.000034   0.000035   0.000121   0.000008
    15  H    0.000847   0.000043  -0.000009  -0.000009   0.000008  -0.000002
    16  H    0.000846   0.000005  -0.000017  -0.000017   0.000008  -0.000001
    17  O   -0.008780   0.000165   0.000005   0.000045   0.000174   0.000032
    18  H    0.000848   0.000033  -0.000017  -0.000009   0.000005  -0.000017
    19  H    0.000845   0.000034  -0.000017  -0.000009   0.000046  -0.000009
               7          8          9         10         11         12
     1  Ni   0.000846  -0.008780   0.000848   0.000845  -0.008779   0.000847
     2  O    0.000045   0.000151   0.000034   0.000035   0.000121   0.000008
     3  H   -0.000009   0.000043  -0.000009  -0.000009   0.000008  -0.000002
     4  H   -0.000009   0.000005  -0.000017  -0.000017   0.000008  -0.000001
     5  O   -0.001657   0.000142   0.000042   0.000005   0.000148   0.000034
     6  H    0.000803   0.000035  -0.000009  -0.000016   0.000043  -0.000009
     7  H    0.001317   0.000036  -0.000009  -0.000016   0.000005  -0.000017
     8  O    0.000036   0.024089  -0.001724  -0.001640   0.000165   0.000005
     9  H   -0.000009  -0.001724   0.001414   0.000804   0.000033  -0.000017
    10  H   -0.000016  -0.001640   0.000804   0.001293   0.000034  -0.000017
    11  O    0.000005   0.000165   0.000033   0.000034   0.024091  -0.001699
    12  H   -0.000017   0.000005  -0.000017  -0.000017  -0.001699   0.001376
    13  H   -0.000017   0.000045  -0.000009  -0.000009  -0.001662   0.000803
    14  O    0.000008   0.000174   0.000005   0.000046   0.000167   0.000033
    15  H   -0.000001   0.000032  -0.000017  -0.000009   0.000005  -0.000017
    16  H   -0.000002   0.000033  -0.000017  -0.000009   0.000045  -0.000009
    17  O    0.000033   0.000121   0.000008   0.000008   0.000151   0.000043
    18  H   -0.000017   0.000008  -0.000003  -0.000001   0.000034  -0.000009
    19  H   -0.000009   0.000008  -0.000001  -0.000002   0.000035  -0.000009
              13         14         15         16         17         18
     1  Ni   0.000845  -0.008782   0.000847   0.000846  -0.008780   0.000848
     2  O    0.000008   0.000148   0.000043   0.000005   0.000165   0.000033
     3  H   -0.000001   0.000034  -0.000009  -0.000017   0.000005  -0.000017
     4  H   -0.000002   0.000035  -0.000009  -0.000017   0.000045  -0.000009
     5  O    0.000035   0.000121   0.000008   0.000008   0.000174   0.000005
     6  H   -0.000009   0.000008  -0.000002  -0.000001   0.000032  -0.000017
     7  H   -0.000017   0.000008  -0.000001  -0.000002   0.000033  -0.000017
     8  O    0.000045   0.000174   0.000032   0.000033   0.000121   0.000008
     9  H   -0.000009   0.000005  -0.000017  -0.000017   0.000008  -0.000003
    10  H   -0.000009   0.000046  -0.000009  -0.000009   0.000008  -0.000001
    11  O   -0.001662   0.000167   0.000005   0.000045   0.000151   0.000034
    12  H    0.000803   0.000033  -0.000017  -0.000009   0.000043  -0.000009
    13  H    0.001325   0.000033  -0.000017  -0.000009   0.000005  -0.000017
    14  O    0.000033   0.024102  -0.001705  -0.001657   0.000142   0.000042
    15  H   -0.000017  -0.001705   0.001385   0.000803   0.000035  -0.000009
    16  H   -0.000009  -0.001657   0.000803   0.001317   0.000036  -0.000009
    17  O    0.000005   0.000142   0.000035   0.000036   0.024089  -0.001724
    18  H   -0.000017   0.000042  -0.000009  -0.000009  -0.001724   0.001414
    19  H   -0.000017   0.000005  -0.000016  -0.000016  -0.001640   0.000804
              19
     1  Ni   0.000845
     2  O    0.000034
     3  H   -0.000017
     4  H   -0.000009
     5  O    0.000046
     6  H   -0.000009
     7  H   -0.000009
     8  O    0.000008
     9  H   -0.000001
    10  H   -0.000002
    11  O    0.000035
    12  H   -0.000009
    13  H   -0.000017
    14  O    0.000005
    15  H   -0.000016
    16  H   -0.000016
    17  O   -0.001640
    18  H    0.000804
    19  H    0.001293
 Mulliken charges and spin densities:
               1          2
     1  Ni   1.081699   1.906251
     2  O   -0.516163   0.012952
     3  H    0.334631   0.001342
     4  H    0.334559   0.001330
     5  O   -0.516079   0.012959
     6  H    0.334634   0.001344
     7  H    0.334518   0.001327
     8  O   -0.516154   0.012945
     9  H    0.334761   0.001353
    10  H    0.334443   0.001322
    11  O   -0.516163   0.012952
    12  H    0.334631   0.001342
    13  H    0.334559   0.001330
    14  O   -0.516079   0.012959
    15  H    0.334634   0.001344
    16  H    0.334518   0.001327
    17  O   -0.516154   0.012945
    18  H    0.334761   0.001353
    19  H    0.334443   0.001322
 Sum of Mulliken charges =   2.00000   2.00000
 Mulliken charges and spin densities with hydrogens summed into heavy atoms:
               1          2
     1  Ni   1.081699   1.906251
     2  O    0.153028   0.015624
     5  O    0.153073   0.015631
     8  O    0.153050   0.015620
    11  O    0.153028   0.015624
    14  O    0.153073   0.015631
    17  O    0.153050   0.015620
 Electronic spatial extent (au):  <R**2>=           1870.5731
 Charge=              2.0000 electrons
 Dipole moment (field-independent basis, Debye):
    X=              0.0000    Y=              0.0000    Z=              0.0000  Tot=              0.0000
 Quadrupole moment (field-independent basis, Debye-Ang):
   XX=             -6.7107   YY=             -6.7087   ZZ=             -6.7148
   XY=              0.0762   XZ=             -0.0865   YZ=             -0.1439
 Traceless Quadrupole moment (field-independent basis, Debye-Ang):
   XX=              0.0007   YY=              0.0027   ZZ=             -0.0034
   XY=              0.0762   XZ=             -0.0865   YZ=             -0.1439
 Octapole moment (field-independent basis, Debye-Ang**2):
  XXX=              0.0000  YYY=              0.0000  ZZZ=              0.0000  XYY=              0.0000
  XXY=              0.0000  XXZ=              0.0000  XZZ=              0.0000  YZZ=              0.0000
  YYZ=              0.0000  XYZ=              0.0000
 Hexadecapole moment (field-independent basis, Debye-Ang**3):
 XXXX=            -52.5612 YYYY=            -52.5931 ZZZZ=            -52.8717 XXXY=             -2.1900
 XXXZ=             -5.8430 YYYX=              4.3874 YYYZ=              4.7381 ZZZX=              2.9996
 ZZZY=             -9.5860 XXYY=           -178.3048 XXZZ=           -178.2640 YYZZ=           -178.1383
 XXYZ=              0.0940 YYXZ=              0.0905 ZZXY=              0.0327
 N-N= 5.414983847234D+02 E-N=-5.736767270386D+03  KE= 1.962382445296D+03
 Symmetry AG   KE= 1.230037585401D+03
 Symmetry AU   KE= 7.323448598947D+02
                          Isotropic Fermi Contact Couplings
        Atom                 a.u.       MegaHertz       Gauss      10(-4) cm-1
     1  Ni(61)            -1.12455     224.98185      80.27912      75.04587
     2  O(17)              0.03117      -9.44777      -3.37120      -3.15144
     3  H(1)               0.00034       0.75440       0.26919       0.25164
     4  H(1)               0.00033       0.73718       0.26305       0.24590
     5  O(17)              0.03116      -9.44603      -3.37058      -3.15085
     6  H(1)               0.00034       0.75573       0.26966       0.25208
     7  H(1)               0.00033       0.73278       0.26147       0.24443
     8  O(17)              0.03117      -9.44901      -3.37164      -3.15185
     9  H(1)               0.00034       0.76729       0.27379       0.25594
    10  H(1)               0.00032       0.72466       0.25858       0.24172
    11  O(17)              0.03117      -9.44777      -3.37120      -3.15144
    12  H(1)               0.00034       0.75440       0.26919       0.25164
    13  H(1)               0.00033       0.73718       0.26305       0.24590
    14  O(17)              0.03116      -9.44603      -3.37058      -3.15085
    15  H(1)               0.00034       0.75573       0.26966       0.25208
    16  H(1)               0.00033       0.73278       0.26147       0.24443
    17  O(17)              0.03117      -9.44901      -3.37164      -3.15185
    18  H(1)               0.00034       0.76729       0.27379       0.25594
    19  H(1)               0.00032       0.72466       0.25858       0.24172
 --------------------------------------------------------
       Center         ----  Spin Dipole Couplings  ----
                      3XX-RR        3YY-RR        3ZZ-RR
 --------------------------------------------------------
     1   Atom        0.000239     -0.000070     -0.000169
     2   Atom        0.075074     -0.038978     -0.036096
     3   Atom        0.012875     -0.004216     -0.008659
     4   Atom        0.012740     -0.004075     -0.008665
     5   Atom       -0.039001     -0.036106      0.075107
     6   Atom       -0.004239     -0.008655      0.012894
     7   Atom       -0.004048     -0.008669      0.012716
     8   Atom       -0.036090      0.075041     -0.038951
     9   Atom       -0.008647      0.012945     -0.004298
    10   Atom       -0.008681      0.012666     -0.003986
    11   Atom        0.075074     -0.038978     -0.036096
    12   Atom        0.012875     -0.004216     -0.008659
    13   Atom        0.012740     -0.004075     -0.008665
    14   Atom       -0.039001     -0.036106      0.075107
    15   Atom       -0.004239     -0.008655      0.012894
    16   Atom       -0.004048     -0.008669      0.012716
    17   Atom       -0.036090      0.075041     -0.038951
    18   Atom       -0.008647      0.012945     -0.004298
    19   Atom       -0.008681      0.012666     -0.003986
 --------------------------------------------------------
                        XY            XZ            YZ
 --------------------------------------------------------
     1   Atom       -0.000674      0.000631      0.000792
     2   Atom       -0.000769      0.000561     -0.000056
     3   Atom        0.005865     -0.000062     -0.000002
     4   Atom       -0.006084     -0.000289      0.000177
     5   Atom        0.000028      0.001011      0.001015
     6   Atom        0.000112     -0.005829     -0.000242
     7   Atom       -0.000182      0.006124     -0.000325
     8   Atom       -0.000433     -0.000039      0.001675
     9   Atom        0.000062     -0.000013     -0.005731
    10   Atom        0.000200      0.000123      0.006217
    11   Atom       -0.000769      0.000561     -0.000056
    12   Atom        0.005865     -0.000062     -0.000002
    13   Atom       -0.006084     -0.000289      0.000177
    14   Atom        0.000028      0.001011      0.001015
    15   Atom        0.000112     -0.005829     -0.000242
    16   Atom       -0.000182      0.006124     -0.000325
    17   Atom       -0.000433     -0.000039      0.001675
    18   Atom        0.000062     -0.000013     -0.005731
    19   Atom        0.000200      0.000123      0.006217
 --------------------------------------------------------


 ---------------------------------------------------------------------------------
              Anisotropic Spin Dipole Couplings in Principal Axis System
 ---------------------------------------------------------------------------------

       Atom             a.u.   MegaHertz   Gauss  10(-4) cm-1        Axes

              Baa    -0.0014     0.068     0.024     0.023 -0.4849 -0.6087  0.6280
     1 Ni(61) Bbb     0.0006    -0.031    -0.011    -0.010  0.3895  0.4926  0.7782
              Bcc     0.0008    -0.037    -0.013    -0.012  0.7831 -0.6219  0.0018
 
              Baa    -0.0390     2.821     1.007     0.941  0.0067  0.9998  0.0180
     2 O(17)  Bbb    -0.0361     2.612     0.932     0.871 -0.0052 -0.0180  0.9998
              Bcc     0.0751    -5.433    -1.939    -1.812  1.0000 -0.0067  0.0050
 
              Baa    -0.0087    -4.620    -1.649    -1.541  0.0043 -0.0053  1.0000
     3 H(1)   Bbb    -0.0060    -3.220    -1.149    -1.074 -0.2962  0.9551  0.0063
              Bcc     0.0147     7.840     2.798     2.615  0.9551  0.2962 -0.0026
 
              Baa    -0.0087    -4.627    -1.651    -1.543  0.0041 -0.0330  0.9994
     4 H(1)   Bbb    -0.0060    -3.224    -1.150    -1.075  0.3084  0.9508  0.0301
              Bcc     0.0147     7.851     2.802     2.619  0.9512 -0.3081 -0.0141
 
              Baa    -0.0390     2.823     1.007     0.942  0.9999 -0.0067 -0.0088
     5 O(17)  Bbb    -0.0361     2.613     0.932     0.872  0.0066  0.9999 -0.0092
              Bcc     0.0751    -5.436    -1.940    -1.813  0.0089  0.0091  0.9999
 
              Baa    -0.0087    -4.620    -1.648    -1.541 -0.0164  0.9998  0.0068
     6 H(1)   Bbb    -0.0060    -3.219    -1.149    -1.074  0.9556  0.0137  0.2945
              Bcc     0.0147     7.839     2.797     2.615 -0.2943 -0.0113  0.9556
 
              Baa    -0.0087    -4.629    -1.652    -1.544  0.0308  0.9995  0.0064
     7 H(1)   Bbb    -0.0060    -3.225    -1.151    -1.076  0.9501 -0.0272 -0.3106
              Bcc     0.0147     7.854     2.803     2.620  0.3103 -0.0156  0.9505
 
              Baa    -0.0390     2.820     1.006     0.941  0.0112 -0.0146  0.9998
     8 O(17)  Bbb    -0.0361     2.612     0.932     0.871  0.9999  0.0041 -0.0111
              Bcc     0.0751    -5.432    -1.938    -1.812 -0.0039  0.9999  0.0147
 
              Baa    -0.0086    -4.614    -1.646    -1.539  1.0000 -0.0032 -0.0012
     9 H(1)   Bbb    -0.0060    -3.217    -1.148    -1.073  0.0020  0.2891  0.9573
              Bcc     0.0147     7.830     2.794     2.612  0.0027  0.9573 -0.2891
 
              Baa    -0.0087    -4.633    -1.653    -1.545  0.9997 -0.0029 -0.0222
    10 H(1)   Bbb    -0.0060    -3.228    -1.152    -1.077  0.0202 -0.3154  0.9487
              Bcc     0.0147     7.861     2.805     2.622  0.0098  0.9490  0.3152
 
              Baa    -0.0390     2.821     1.007     0.941  0.0067  0.9998  0.0180
    11 O(17)  Bbb    -0.0361     2.612     0.932     0.871 -0.0052 -0.0180  0.9998
              Bcc     0.0751    -5.433    -1.939    -1.812  1.0000 -0.0067  0.0050
 
              Baa    -0.0087    -4.620    -1.649    -1.541  0.0043 -0.0053  1.0000
    12 H(1)   Bbb    -0.0060    -3.220    -1.149    -1.074 -0.2962  0.9551  0.0063
              Bcc     0.0147     7.840     2.798     2.615  0.9551  0.2962 -0.0026
 
              Baa    -0.0087    -4.627    -1.651    -1.543  0.0041 -0.0330  0.9994
    13 H(1)   Bbb    -0.0060    -3.224    -1.150    -1.075  0.3084  0.9508  0.0301
              Bcc     0.0147     7.851     2.802     2.619  0.9512 -0.3081 -0.0141
 
              Baa    -0.0390     2.823     1.007     0.942  0.9999 -0.0067 -0.0088
    14 O(17)  Bbb    -0.0361     2.613     0.932     0.872  0.0066  0.9999 -0.0092
              Bcc     0.0751    -5.436    -1.940    -1.813  0.0089  0.0091  0.9999
 
              Baa    -0.0087    -4.620    -1.648    -1.541 -0.0164  0.9998  0.0068
    15 H(1)   Bbb    -0.0060    -3.219    -1.149    -1.074  0.9556  0.0137  0.2945
              Bcc     0.0147     7.839     2.797     2.615 -0.2943 -0.0113  0.9556
 
              Baa    -0.0087    -4.629    -1.652    -1.544  0.0308  0.9995  0.0064
    16 H(1)   Bbb    -0.0060    -3.225    -1.151    -1.076  0.9501 -0.0272 -0.3106
              Bcc     0.0147     7.854     2.803     2.620  0.3103 -0.0156  0.9505
 
              Baa    -0.0390     2.820     1.006     0.941  0.0112 -0.0146  0.9998
    17 O(17)  Bbb    -0.0361     2.612     0.932     0.871  0.9999  0.0041 -0.0111
              Bcc     0.0751    -5.432    -1.938    -1.812 -0.0039  0.9999  0.0147
 
              Baa    -0.0086    -4.614    -1.646    -1.539  1.0000 -0.0032 -0.0012
    18 H(1)   Bbb    -0.0060    -3.217    -1.148    -1.073  0.0020  0.2891  0.9573
              Bcc     0.0147     7.830     2.794     2.612  0.0027  0.9573 -0.2891
 
              Baa    -0.0087    -4.633    -1.653    -1.545  0.9997 -0.0029 -0.0222
    19 H(1)   Bbb    -0.0060    -3.228    -1.152    -1.077  0.0202 -0.3154  0.9487
              Bcc     0.0147     7.861     2.805     2.622  0.0098  0.9490  0.3152
 

 ---------------------------------------------------------------------------------

 Calling FoFJK, ICntrl=      2127 FMM=F ISym2X=1 I1Cent= 0 IOpClX= 1 NMat=1 NMatS=1 NMatT=0.
 ***** Axes restored to original set *****
 -------------------------------------------------------------------
 Center     Atomic                   Forces (Hartrees/Bohr)
 Number     Number              X              Y              Z
 -------------------------------------------------------------------
      1       28           0.000000000    0.000000000    0.000000000
      2        8           0.025670823   -0.000105144   -0.000230024
      3        1           0.000521495    0.001104265    0.000038808
      4        1           0.000502984   -0.001152743    0.000015164
      5        8          -0.000138148    0.000384112   -0.025670587
      6        1           0.001095783   -0.000057291   -0.000525358
      7        1          -0.001159792   -0.000045712   -0.000501196
      8        8          -0.000170616   -0.025680923   -0.000193646
      9        1           0.000027388   -0.000533923    0.001072771
     10        1           0.000012671   -0.000478063   -0.001192090
     11        8          -0.025670823    0.000105144    0.000230024
     12        1          -0.000521495   -0.001104265   -0.000038808
     13        1          -0.000502984    0.001152743   -0.000015164
     14        8           0.000138148   -0.000384112    0.025670587
     15        1          -0.001095783    0.000057291    0.000525358
     16        1           0.001159792    0.000045712    0.000501196
     17        8           0.000170616    0.025680923    0.000193646
     18        1          -0.000027388    0.000533923   -0.001072771
     19        1          -0.000012671    0.000478063    0.001192090
 -------------------------------------------------------------------
 Cartesian Forces:  Max     0.025680923 RMS     0.008349844

 GradGradGradGradGradGradGradGradGradGradGradGradGradGradGradGradGradGrad
 Berny optimization.
 FormGI is forming the generalized inverse of G from B-inverse, IUseBI=4.
 Internal  Forces:  Max     0.026699343 RMS     0.006137961
 Search for a local minimum.
 Step number   1 out of a maximum of  114
 All quantities printed in internal units (Hartrees-Bohrs-Radians)
 Mixed Optimization -- En-DIIS/RFO-DIIS
 Second derivative matrix not updated -- first step.
 ITU=  0
     Eigenvalues ---    0.00230   0.00230   0.00230   0.00230   0.00230
     Eigenvalues ---    0.00230   0.00230   0.00230   0.00230   0.00230
     Eigenvalues ---    0.00231   0.00231   0.05494   0.05495   0.05496
     Eigenvalues ---    0.06422   0.06423   0.06424   0.12536   0.12637
     Eigenvalues ---    0.12672   0.16000   0.16000   0.16000   0.16000
     Eigenvalues ---    0.16000   0.16000   0.16000   0.16000   0.16000
     Eigenvalues ---    0.16000   0.16000   0.16000   0.54648   0.54648
     Eigenvalues ---    0.54653   0.54653   0.54655   0.54655   0.54663
     Eigenvalues ---    0.54663   0.54666   0.54666   0.54672   0.54672
     Eigenvalues --- 1000.000001000.000001000.000001000.000001000.00000
     Eigenvalues --- 1000.000001000.000001000.000001000.000001000.00000
     Eigenvalues --- 1000.000001000.000001000.000001000.000001000.00000
     Eigenvalues --- 1000.000001000.000001000.000001000.000001000.00000
     Eigenvalues --- 1000.000001000.000001000.000001000.000001000.00000
     Eigenvalues --- 1000.000001000.000001000.000001000.000001000.00000
     Eigenvalues --- 1000.000001000.000001000.000001000.000001000.00000
     Eigenvalues --- 1000.000001000.000001000.000001000.000001000.00000
     Eigenvalues --- 1000.000001000.000001000.000001000.000001000.00000
     Eigenvalues --- 1000.000001000.000001000.000001000.000001000.00000
     Eigenvalues --- 1000.000001000.000001000.000001000.000001000.00000
     Eigenvalues --- 1000.000001000.000001000.000001000.000001000.00000
     Eigenvalues --- 1000.000001000.000001000.000001000.000001000.00000
     Eigenvalues --- 1000.000001000.000001000.000001000.00000
 RFO step:  Lambda=-4.29265105D-05 EMin= 2.30000000D-03
 Linear search not attempted -- first point.
 Iteration  1 RMS(Cart)=  0.00220070 RMS(Int)=  0.00001060
 Iteration  2 RMS(Cart)=  0.00000855 RMS(Int)=  0.00000662
 Iteration  3 RMS(Cart)=  0.00000000 RMS(Int)=  0.00000662
 Iteration  1 RMS(Cart)=  0.00000000 RMS(Int)=  0.00000000
 ClnCor:  largest displacement from symmetrization is 2.99D-08 for atom    18.
 Variable       Old X    -DE/DX   Delta X   Delta X   Delta X     New X
                                 (Linear)    (Quad)   (Total)
    R1        5.29123  -0.02670   0.00000   0.00000   0.00000   5.29123
    R2        5.29123  -0.02670   0.00000   0.00000   0.00000   5.29123
    R3        5.29123  -0.02670   0.00000   0.00000   0.00000   5.29123
    R4        5.29123  -0.02670   0.00000   0.00000   0.00000   5.29123
    R5        5.29123  -0.02670   0.00000   0.00000   0.00000   5.29123
    R6        5.29123  -0.02670   0.00000   0.00000   0.00000   5.29123
    R7        1.82133  -0.00120   0.00000  -0.00219  -0.00219   1.81913
    R8        1.82140  -0.00123   0.00000  -0.00225  -0.00225   1.81915
    R9        1.82130  -0.00119   0.00000  -0.00218  -0.00218   1.81912
   R10        1.82142  -0.00123   0.00000  -0.00226  -0.00226   1.81916
   R11        1.82125  -0.00118   0.00000  -0.00216  -0.00216   1.81909
   R12        1.82146  -0.00125   0.00000  -0.00229  -0.00229   1.81918
   R13        1.82133  -0.00120   0.00000  -0.00219  -0.00219   1.81913
   R14        1.82140  -0.00123   0.00000  -0.00225  -0.00225   1.81915
   R15        1.82130  -0.00119   0.00000  -0.00218  -0.00218   1.81912
   R16        1.82142  -0.00123   0.00000  -0.00226  -0.00226   1.81916
   R17        1.82125  -0.00118   0.00000  -0.00216  -0.00216   1.81909
   R18        1.82146  -0.00125   0.00000  -0.00229  -0.00229   1.81918
    A1        1.57349   0.00001   0.00000   0.00010   0.00010   1.57358
    A2        1.56868  -0.00001   0.00000  -0.00006  -0.00006   1.56862
    A3        1.56810  -0.00001   0.00000  -0.00010  -0.00010   1.56801
    A4        1.57291   0.00001   0.00000   0.00006   0.00006   1.57297
    A5        1.56622  -0.00002   0.00000  -0.00019  -0.00019   1.56603
    A6        1.56810  -0.00001   0.00000  -0.00010  -0.00010   1.56801
    A7        1.57537   0.00002   0.00000   0.00019   0.00019   1.57556
    A8        1.57291   0.00001   0.00000   0.00006   0.00006   1.57297
    A9        1.57537   0.00002   0.00000   0.00019   0.00019   1.57556
   A10        1.57349   0.00001   0.00000   0.00010   0.00010   1.57358
   A11        1.56868  -0.00001   0.00000  -0.00006  -0.00006   1.56862
   A12        1.56622  -0.00002   0.00000  -0.00019  -0.00019   1.56603
   A13        2.20094   0.00013   0.00000   0.00078   0.00077   2.20171
   A14        2.19757   0.00017   0.00000   0.00102   0.00101   2.19858
   A15        1.88450  -0.00030   0.00000  -0.00193  -0.00194   1.88256
   A16        2.20138   0.00012   0.00000   0.00063   0.00061   2.20198
   A17        2.19683   0.00018   0.00000   0.00097   0.00094   2.19777
   A18        1.88445  -0.00030   0.00000  -0.00201  -0.00204   1.88241
   A19        2.20403   0.00009   0.00000   0.00055   0.00055   2.20458
   A20        2.19447   0.00022   0.00000   0.00134   0.00133   2.19581
   A21        1.88458  -0.00031   0.00000  -0.00197  -0.00197   1.88260
   A22        2.20094   0.00013   0.00000   0.00078   0.00077   2.20171
   A23        2.19757   0.00017   0.00000   0.00102   0.00101   2.19858
   A24        1.88450  -0.00030   0.00000  -0.00193  -0.00194   1.88256
   A25        2.20138   0.00012   0.00000   0.00063   0.00061   2.20198
   A26        2.19683   0.00018   0.00000   0.00097   0.00094   2.19777
   A27        1.88445  -0.00030   0.00000  -0.00201  -0.00204   1.88241
   A28        2.20403   0.00009   0.00000   0.00055   0.00055   2.20458
   A29        2.19447   0.00022   0.00000   0.00134   0.00133   2.19581
   A30        1.88458  -0.00031   0.00000  -0.00197  -0.00197   1.88260
   A31        3.14159   0.00000   0.00000   0.00000   0.00000   3.14159
   A32        3.14159   0.00000   0.00000   0.00000   0.00000   3.14159
   A33        3.14159   0.00000   0.00000   0.00000   0.00000   3.14159
   A34        3.14159   0.00000   0.00000   0.00000   0.00000   3.14159
   A35        3.14159   0.00000   0.00000   0.00000   0.00000   3.14159
   A36        3.14159   0.00000   0.00000   0.00000   0.00000   3.14159
    D1       -1.57003  -0.00001   0.00000   0.00259   0.00259  -1.56744
    D2        1.54870  -0.00003   0.00000  -0.00604  -0.00604   1.54266
    D3       -3.13624   0.00002   0.00000   0.00278   0.00278  -3.13346
    D4       -0.01751   0.00000   0.00000  -0.00585  -0.00585  -0.02336
    D5        1.57157  -0.00001   0.00000   0.00259   0.00259   1.57415
    D6       -1.59289  -0.00003   0.00000  -0.00604  -0.00604  -1.59893
    D7        0.00535   0.00002   0.00000   0.00278   0.00278   0.00813
    D8        3.12408   0.00000   0.00000  -0.00585  -0.00585   3.11823
    D9        3.14159   0.00000   0.00000   0.00000   0.00000   3.14159
   D10        0.02286   0.00002   0.00000   0.00862   0.00862   0.03149
   D11       -0.02286  -0.00002   0.00000  -0.00862  -0.00862  -0.03149
   D12        3.14159   0.00000   0.00000   0.00000   0.00000   3.14159
   D13        0.01844   0.00002   0.00000   0.00726   0.00726   0.02570
   D14        3.12096  -0.00002   0.00000  -0.00821  -0.00821   3.11275
   D15        1.58712   0.00001   0.00000   0.00720   0.00720   1.59431
   D16       -1.59355  -0.00002   0.00000  -0.00828  -0.00828  -1.60183
   D17       -3.12315   0.00002   0.00000   0.00726   0.00726  -3.11589
   D18       -0.02063  -0.00002   0.00000  -0.00821  -0.00821  -0.02884
   D19       -1.55448   0.00001   0.00000   0.00720   0.00720  -1.54728
   D20        1.54804  -0.00002   0.00000  -0.00828  -0.00828   1.53977
   D21        3.14159   0.00000   0.00000   0.00000   0.00000   3.14159
   D22        0.03908   0.00004   0.00000   0.01547   0.01547   0.05455
   D23       -0.03908  -0.00004   0.00000  -0.01547  -0.01547  -0.05455
   D24        3.14159   0.00000   0.00000   0.00000   0.00000   3.14159
   D25       -1.57317   0.00000   0.00000  -0.00220  -0.00220  -1.57537
   D26        1.58580   0.00002   0.00000   0.00441   0.00441   1.59021
   D27        3.13652  -0.00001   0.00000  -0.00230  -0.00230   3.13422
   D28        0.01230   0.00000   0.00000   0.00431   0.00431   0.01661
   D29        1.56843   0.00000   0.00000  -0.00220  -0.00220   1.56622
   D30       -1.55579   0.00002   0.00000   0.00441   0.00441  -1.55138
   D31       -0.00507  -0.00001   0.00000  -0.00230  -0.00230  -0.00737
   D32       -3.12929   0.00000   0.00000   0.00431   0.00431  -3.12498
   D33        3.14159   0.00000   0.00000   0.00000   0.00000   3.14159
   D34       -0.01738  -0.00002   0.00000  -0.00661  -0.00661  -0.02399
   D35        0.01738   0.00002   0.00000   0.00661   0.00661   0.02399
   D36        3.14159   0.00000   0.00000   0.00000   0.00000   3.14159
   D37       -1.57157   0.00001   0.00000  -0.00259  -0.00259  -1.57415
   D38        1.59289   0.00003   0.00000   0.00604   0.00604   1.59893
[...]
    10  H    0.000054  -0.000121   0.000054   0.000046   0.000036   0.000002
    11  O    0.290904  -0.001318  -0.000108  -0.000118  -0.005435   0.000061
    12  H   -0.005413  -0.000153   0.000057   0.000051  -0.000490   0.000070
    13  H    0.396518  -0.000067   0.000027   0.000048   0.002612   0.000057
    14  O   -0.000067   7.824019   0.287097   0.290089  -0.006173  -0.000566
    15  H    0.000027   0.287097   0.399541  -0.005019   0.000085   0.000075
    16  H    0.000048   0.290089  -0.005019   0.397335   0.000199   0.000178
    17  O    0.002612  -0.006173   0.000085   0.000199   7.820919   0.287870
    18  H    0.000057  -0.000566   0.000075   0.000178   0.287870   0.399479
    19  H    0.000107   0.002873   0.000079   0.000123   0.290254  -0.005012
              19
     1  Ni  -0.005610
     2  O   -0.000062
     3  H    0.000022
     4  H    0.000054
     5  O   -0.000121
     6  H    0.000054
     7  H    0.000046
     8  O    0.000036
     9  H    0.000002
    10  H    0.000024
    11  O    0.000216
    12  H    0.000161
    13  H    0.000107
    14  O    0.002873
    15  H    0.000079
    16  H    0.000123
    17  O    0.290254
    18  H   -0.005012
    19  H    0.397728
          Atomic-Atomic Spin Densities.
               1          2          3          4          5          6
     1  Ni   1.947742  -0.008032   0.000605   0.000609  -0.007911   0.000593
     2  O   -0.008032   0.021855   0.000050   0.000946  -0.000225  -0.000029
     3  H    0.000605   0.000050   0.000377   0.000001   0.000018  -0.000007
     4  H    0.000609   0.000946   0.000001  -0.000640   0.000014  -0.000003
     5  O   -0.007911  -0.000225   0.000018   0.000014   0.021380   0.000128
     6  H    0.000593  -0.000029  -0.000007  -0.000003   0.000128   0.000380
     7  H    0.000618   0.000023  -0.000003  -0.000001   0.001102  -0.000048
     8  O   -0.008042  -0.000634   0.000043   0.000055  -0.000687   0.000082
     9  H    0.000603   0.000081  -0.000016  -0.000025   0.000049  -0.000016
    10  H    0.000623   0.000042  -0.000008  -0.000007   0.000071  -0.000030
    11  O   -0.008032   0.000111   0.000005  -0.000003  -0.000700   0.000050
    12  H    0.000605   0.000005  -0.000003  -0.000001   0.000085  -0.000017
    13  H    0.000609  -0.000003  -0.000001  -0.000002   0.000048  -0.000009
    14  O   -0.007911  -0.000700   0.000085   0.000048   0.000109   0.000005
    15  H    0.000593   0.000050  -0.000017  -0.000009   0.000005  -0.000003
    16  H    0.000618   0.000072  -0.000029  -0.000011  -0.000003  -0.000001
    17  O   -0.008042  -0.000226  -0.000029   0.000024  -0.000233   0.000020
    18  H    0.000603   0.000020  -0.000008  -0.000003  -0.000029  -0.000007
    19  H    0.000623   0.000018  -0.000003  -0.000001   0.000023  -0.000003
               7          8          9         10         11         12
     1  Ni   0.000618  -0.008042   0.000603   0.000623  -0.008032   0.000605
     2  O    0.000023  -0.000634   0.000081   0.000042   0.000111   0.000005
     3  H   -0.000003   0.000043  -0.000016  -0.000008   0.000005  -0.000003
     4  H   -0.000001   0.000055  -0.000025  -0.000007  -0.000003  -0.000001
     5  O    0.001102  -0.000687   0.000049   0.000071  -0.000700   0.000085
     6  H   -0.000048   0.000082  -0.000016  -0.000030   0.000050  -0.000017
     7  H   -0.000725   0.000048  -0.000010  -0.000011   0.000072  -0.000029
     8  O    0.000048   0.021846   0.000078   0.001027  -0.000226  -0.000029
     9  H   -0.000010   0.000078   0.000399  -0.000020   0.000020  -0.000008
    10  H   -0.000011   0.001027  -0.000020  -0.000682   0.000018  -0.000003
    11  O    0.000072  -0.000226   0.000020   0.000018   0.021855   0.000050
    12  H   -0.000029  -0.000029  -0.000008  -0.000003   0.000050   0.000377
    13  H   -0.000011   0.000024  -0.000003  -0.000001   0.000946   0.000001
    14  O   -0.000003  -0.000233  -0.000029   0.000023  -0.000225   0.000018
    15  H   -0.000001   0.000020  -0.000007  -0.000003  -0.000029  -0.000007
    16  H   -0.000002   0.000014  -0.000002   0.000000   0.000023  -0.000003
    17  O    0.000014   0.000110   0.000005  -0.000003  -0.000634   0.000043
    18  H   -0.000002   0.000005  -0.000003  -0.000001   0.000081  -0.000016
    19  H    0.000000  -0.000003  -0.000001  -0.000002   0.000042  -0.000008
              13         14         15         16         17         18
     1  Ni   0.000609  -0.007911   0.000593   0.000618  -0.008042   0.000603
     2  O   -0.000003  -0.000700   0.000050   0.000072  -0.000226   0.000020
     3  H   -0.000001   0.000085  -0.000017  -0.000029  -0.000029  -0.000008
     4  H   -0.000002   0.000048  -0.000009  -0.000011   0.000024  -0.000003
     5  O    0.000048   0.000109   0.000005  -0.000003  -0.000233  -0.000029
     6  H   -0.000009   0.000005  -0.000003  -0.000001   0.000020  -0.000007
     7  H   -0.000011  -0.000003  -0.000001  -0.000002   0.000014  -0.000002
     8  O    0.000024  -0.000233   0.000020   0.000014   0.000110   0.000005
     9  H   -0.000003  -0.000029  -0.000007  -0.000002   0.000005  -0.000003
    10  H   -0.000001   0.000023  -0.000003   0.000000  -0.000003  -0.000001
    11  O    0.000946  -0.000225  -0.000029   0.000023  -0.000634   0.000081
    12  H    0.000001   0.000018  -0.000007  -0.000003   0.000043  -0.000016
    13  H   -0.000640   0.000014  -0.000003  -0.000001   0.000055  -0.000025
    14  O    0.000014   0.021380   0.000128   0.001102  -0.000687   0.000049
    15  H   -0.000003   0.000128   0.000380  -0.000048   0.000082  -0.000016
    16  H   -0.000001   0.001102  -0.000048  -0.000725   0.000048  -0.000010
    17  O    0.000055  -0.000687   0.000082   0.000048   0.021846   0.000078
    18  H   -0.000025   0.000049  -0.000016  -0.000010   0.000078   0.000399
    19  H   -0.000007   0.000071  -0.000030  -0.000011   0.001027  -0.000020
              19
     1  Ni   0.000623
     2  O    0.000018
     3  H   -0.000003
     4  H   -0.000001
     5  O    0.000023
     6  H   -0.000003
     7  H    0.000000
     8  O   -0.000003
     9  H   -0.000001
    10  H   -0.000002
    11  O    0.000042
    12  H   -0.000008
    13  H   -0.000007
    14  O    0.000071
    15  H   -0.000030
    16  H   -0.000011
    17  O    0.001027
    18  H   -0.000020
    19  H   -0.000682
 Mulliken charges and spin densities:
               1          2
     1  Ni   1.093889   1.907074
     2  O   -0.490666   0.013423
     3  H    0.320869   0.001061
     4  H    0.320231   0.000992
     5  O   -0.489244   0.013244
     6  H    0.320701   0.001085
     7  H    0.319677   0.001031
     8  O   -0.487919   0.013498
     9  H    0.320377   0.001094
    10  H    0.319027   0.001034
    11  O   -0.490666   0.013423
    12  H    0.320869   0.001061
    13  H    0.320231   0.000992
    14  O   -0.489244   0.013244
    15  H    0.320701   0.001085
    16  H    0.319677   0.001031
    17  O   -0.487919   0.013498
    18  H    0.320377   0.001094
    19  H    0.319027   0.001034
 Sum of Mulliken charges =   2.00000   2.00000
 Mulliken charges and spin densities with hydrogens summed into heavy atoms:
               1          2
     1  Ni   1.093889   1.907074
     2  O    0.150435   0.015476
     5  O    0.151135   0.015360
     8  O    0.151486   0.015627
    11  O    0.150435   0.015476
    14  O    0.151135   0.015360
    17  O    0.151486   0.015627
 Electronic spatial extent (au):  <R**2>=           1853.1020
 Charge=              2.0000 electrons
 Dipole moment (field-independent basis, Debye):
    X=              0.0000    Y=              0.0000    Z=              0.0000  Tot=              0.0000
 Quadrupole moment (field-independent basis, Debye-Ang):
   XX=            -10.2023   YY=            -10.6854   ZZ=            -10.5709
   XY=             -1.7953   XZ=              2.7470   YZ=              2.4170
 Traceless Quadrupole moment (field-independent basis, Debye-Ang):
   XX=              0.2839   YY=             -0.1992   ZZ=             -0.0847
   XY=             -1.7953   XZ=              2.7470   YZ=              2.4170
 Octapole moment (field-independent basis, Debye-Ang**2):
  XXX=              0.0000  YYY=              0.0000  ZZZ=              0.0000  XYY=              0.0000
  XXY=              0.0000  XXZ=              0.0000  XZZ=              0.0000  YZZ=              0.0000
  YYZ=              0.0000  XYZ=              0.0000
 Hexadecapole moment (field-independent basis, Debye-Ang**3):
 XXXX=           -133.6742 YYYY=           -135.6064 ZZZZ=           -138.3457 XXXY=             54.0882
 XXXZ=            -55.5275 YYYX=             54.5578 YYYZ=            -56.1019 ZZZX=            -56.7389
 ZZZY=            -58.5084 XXYY=           -185.7696 XXZZ=           -186.2450 YYZZ=           -185.4290
 XXYZ=            -26.8302 YYXZ=            -25.3074 ZZXY=             23.1747
 N-N= 5.483962021588D+02 E-N=-5.750225900338D+03  KE= 1.962415821045D+03
 Symmetry AG   KE= 1.230006027732D+03
 Symmetry AU   KE= 7.324097933133D+02
                          Isotropic Fermi Contact Couplings
        Atom                 a.u.       MegaHertz       Gauss      10(-4) cm-1
     1  Ni(61)            -1.11672     223.41557      79.72023      74.52341
     2  O(17)              0.02331      -7.06389      -2.52057      -2.35626
     3  H(1)              -0.00003      -0.06708      -0.02394      -0.02238
     4  H(1)              -0.00010      -0.21560      -0.07693      -0.07192
     5  O(17)              0.02309      -6.99873      -2.49732      -2.33453
     6  H(1)              -0.00003      -0.06749      -0.02408      -0.02251
     7  H(1)              -0.00010      -0.22838      -0.08149      -0.07618
     8  O(17)              0.02358      -7.14776      -2.55050      -2.38423
     9  H(1)              -0.00002      -0.04627      -0.01651      -0.01543
    10  H(1)              -0.00010      -0.21348      -0.07617      -0.07121
    11  O(17)              0.02331      -7.06389      -2.52057      -2.35626
    12  H(1)              -0.00003      -0.06708      -0.02394      -0.02238
    13  H(1)              -0.00010      -0.21560      -0.07693      -0.07192
    14  O(17)              0.02309      -6.99873      -2.49732      -2.33453
    15  H(1)              -0.00003      -0.06749      -0.02408      -0.02251
    16  H(1)              -0.00010      -0.22838      -0.08149      -0.07618
    17  O(17)              0.02358      -7.14776      -2.55050      -2.38423
    18  H(1)              -0.00002      -0.04627      -0.01651      -0.01543
    19  H(1)              -0.00010      -0.21348      -0.07617      -0.07121
 --------------------------------------------------------
       Center         ----  Spin Dipole Couplings  ----
                      3XX-RR        3YY-RR        3ZZ-RR
 --------------------------------------------------------
     1   Atom        0.002535     -0.006424      0.003888
     2   Atom        0.068513     -0.048037     -0.020476
     3   Atom        0.014468     -0.006034     -0.008434
     4   Atom        0.011901     -0.002436     -0.009465
     5   Atom       -0.046668     -0.020975      0.067643
     6   Atom       -0.006234     -0.008406      0.014640
     7   Atom       -0.002035     -0.009562      0.011596
     8   Atom       -0.022080      0.068869     -0.046790
     9   Atom       -0.008451      0.014637     -0.006187
    10   Atom       -0.009572      0.011583     -0.002011
    11   Atom        0.068513     -0.048037     -0.020476
    12   Atom        0.014468     -0.006034     -0.008434
    13   Atom        0.011901     -0.002436     -0.009465
    14   Atom       -0.046668     -0.020975      0.067643
    15   Atom       -0.006234     -0.008406      0.014640
    16   Atom       -0.002035     -0.009562      0.011596
    17   Atom       -0.022080      0.068869     -0.046790
    18   Atom       -0.008451      0.014637     -0.006187
    19   Atom       -0.009572      0.011583     -0.002011
 --------------------------------------------------------
                        XY            XZ            YZ
 --------------------------------------------------------
     1   Atom       -0.246739      0.268178      0.270319
     2   Atom       -0.019567      0.054718     -0.009478
     3   Atom        0.004595      0.001168     -0.001265
     4   Atom       -0.009259      0.002293      0.000622
     5   Atom        0.011064      0.022922      0.053934
     6   Atom        0.001307     -0.004112      0.001024
     7   Atom       -0.000617      0.009602      0.002237
     8   Atom       -0.053459     -0.011081      0.023473
     9   Atom       -0.000993     -0.001308     -0.004120
    10   Atom       -0.002123      0.000694      0.009605
    11   Atom       -0.019567      0.054718     -0.009478
    12   Atom        0.004595      0.001168     -0.001265
    13   Atom       -0.009259      0.002293      0.000622
    14   Atom        0.011064      0.022922      0.053934
    15   Atom        0.001307     -0.004112      0.001024
    16   Atom       -0.000617      0.009602      0.002237
    17   Atom       -0.053459     -0.011081      0.023473
    18   Atom       -0.000993     -0.001308     -0.004120
    19   Atom       -0.002123      0.000694      0.009605
 --------------------------------------------------------


 ---------------------------------------------------------------------------------
              Anisotropic Spin Dipole Couplings in Principal Axis System
 ---------------------------------------------------------------------------------

       Atom             a.u.   MegaHertz   Gauss  10(-4) cm-1        Axes

              Baa    -0.5236    25.008     8.923     8.342 -0.5692 -0.5775  0.5853
     1 Ni(61) Bbb     0.2448   -11.690    -4.171    -3.900 -0.6929  0.7201  0.0366
              Bcc     0.2788   -13.317    -4.752    -4.442  0.4426  0.3847  0.8100
 
              Baa    -0.0513     3.711     1.324     1.238  0.1194  0.9886  0.0920
     2 O(17)  Bbb    -0.0465     3.365     1.201     1.122 -0.4337 -0.0314  0.9005
              Bcc     0.0978    -7.076    -2.525    -2.360  0.8931 -0.1475  0.4250
 
              Baa    -0.0094    -5.010    -1.788    -1.671 -0.1400  0.5113  0.8479
     3 H(1)   Bbb    -0.0061    -3.251    -1.160    -1.084 -0.1564  0.8342 -0.5288
              Bcc     0.0155     8.261     2.948     2.756  0.9777  0.2066  0.0368
 
              Baa    -0.0103    -5.506    -1.965    -1.837 -0.2408 -0.3541  0.9037
     4 H(1)   Bbb    -0.0062    -3.333    -1.189    -1.112  0.3690  0.8278  0.4227
              Bcc     0.0166     8.839     3.154     2.948  0.8977 -0.4352  0.0687
 
              Baa    -0.0512     3.702     1.321     1.235  0.9839 -0.1135 -0.1383
     5 O(17)  Bbb    -0.0465     3.362     1.200     1.121  0.0428  0.8999 -0.4340
              Bcc     0.0976    -7.064    -2.521    -2.356  0.1737  0.4211  0.8902
 
              Baa    -0.0094    -4.993    -1.782    -1.665 -0.5183  0.8460 -0.1249
     6 H(1)   Bbb    -0.0061    -3.248    -1.159    -1.083  0.8351  0.5322  0.1394
              Bcc     0.0154     8.241     2.941     2.749 -0.1844  0.0321  0.9823
 
              Baa    -0.0104    -5.548    -1.980    -1.851  0.3462  0.9061 -0.2433
     7 H(1)   Bbb    -0.0063    -3.345    -1.194    -1.116  0.8209 -0.4181 -0.3889
              Bcc     0.0167     8.893     3.173     2.966  0.4541  0.0651  0.8886
 
              Baa    -0.0514     3.723     1.328     1.242  0.1142 -0.1411  0.9834
     8 O(17)  Bbb    -0.0468     3.385     1.208     1.129  0.9034  0.4265 -0.0437
              Bcc     0.0982    -7.107    -2.536    -2.371 -0.4132  0.8934  0.1762
 
              Baa    -0.0094    -5.001    -1.784    -1.668  0.8525  0.1225  0.5082
     9 H(1)   Bbb    -0.0061    -3.240    -1.156    -1.081 -0.5219  0.1423  0.8411
              Bcc     0.0154     8.241     2.940     2.749 -0.0307  0.9822 -0.1852
 
              Baa    -0.0104    -5.551    -1.981    -1.852  0.9055  0.2402 -0.3498
    10 H(1)   Bbb    -0.0062    -3.331    -1.189    -1.111  0.4201 -0.3912  0.8188
              Bcc     0.0166     8.882     3.169     2.963 -0.0599  0.8884  0.4551
 
              Baa    -0.0513     3.711     1.324     1.238  0.1194  0.9886  0.0920
    11 O(17)  Bbb    -0.0465     3.365     1.201     1.122 -0.4337 -0.0314  0.9005
              Bcc     0.0978    -7.076    -2.525    -2.360  0.8931 -0.1475  0.4250
 
              Baa    -0.0094    -5.010    -1.788    -1.671 -0.1400  0.5113  0.8479
    12 H(1)   Bbb    -0.0061    -3.251    -1.160    -1.084 -0.1564  0.8342 -0.5288
              Bcc     0.0155     8.261     2.948     2.756  0.9777  0.2066  0.0368
 
              Baa    -0.0103    -5.506    -1.965    -1.837 -0.2408 -0.3541  0.9037
    13 H(1)   Bbb    -0.0062    -3.333    -1.189    -1.112  0.3690  0.8278  0.4227
              Bcc     0.0166     8.839     3.154     2.948  0.8977 -0.4352  0.0687
 
              Baa    -0.0512     3.702     1.321     1.235  0.9839 -0.1135 -0.1383
    14 O(17)  Bbb    -0.0465     3.362     1.200     1.121  0.0428  0.8999 -0.4340
              Bcc     0.0976    -7.064    -2.521    -2.356  0.1737  0.4211  0.8902
 
              Baa    -0.0094    -4.993    -1.782    -1.665 -0.5183  0.8460 -0.1249
    15 H(1)   Bbb    -0.0061    -3.248    -1.159    -1.083  0.8351  0.5322  0.1394
              Bcc     0.0154     8.241     2.941     2.749 -0.1844  0.0321  0.9823
 
              Baa    -0.0104    -5.548    -1.980    -1.851  0.3462  0.9061 -0.2433
    16 H(1)   Bbb    -0.0063    -3.345    -1.194    -1.116  0.8209 -0.4181 -0.3889
              Bcc     0.0167     8.893     3.173     2.966  0.4541  0.0651  0.8886
 
              Baa    -0.0514     3.723     1.328     1.242  0.1142 -0.1411  0.9834
    17 O(17)  Bbb    -0.0468     3.385     1.208     1.129  0.9034  0.4265 -0.0437
              Bcc     0.0982    -7.107    -2.536    -2.371 -0.4132  0.8934  0.1762
 
              Baa    -0.0094    -5.001    -1.784    -1.668  0.8525  0.1225  0.5082
    18 H(1)   Bbb    -0.0061    -3.240    -1.156    -1.081 -0.5219  0.1423  0.8411
              Bcc     0.0154     8.241     2.940     2.749 -0.0307  0.9822 -0.1852
 
              Baa    -0.0104    -5.551    -1.981    -1.852  0.9055  0.2402 -0.3498
    19 H(1)   Bbb    -0.0062    -3.331    -1.189    -1.111  0.4201 -0.3912  0.8188
              Bcc     0.0166     8.882     3.169     2.963 -0.0599  0.8884  0.4551
 

 ---------------------------------------------------------------------------------

 1\1\GINC-MN57\FOpt\UM062X\6-311++G(2d,2p)\H12Ni1O6(2+,3)\DARAM_A\01-Se
 p-2015\0\\# opt=modredundant 6-311++g(2d,2p) geom=connectivity m062x o
 utput=wfnx\\Ni23_28\\2,3\Ni,0.,0.,0.\O,-2.7318289821,0.2756209752,-0.5
 487653928\H,-3.4033193299,-0.3663910733,-0.2904275675\H,-3.0782353034,
 1.1458191812,-0.318038636\O,0.3305824319,0.5384495096,2.7277806722\H,-
 0.2902786991,0.2769227197,3.4176542\H,1.2112755689,0.3027116456,3.0429
 571698\O,-0.527441508,2.7294663874,0.3343929874\H,-0.2700935076,3.4186
 348385,-0.288880334\H,-0.2874025651,3.0458127899,1.2134403326\O,2.7318
 289821,-0.2756209752,0.5487653928\H,3.4033193299,0.3663910733,0.290427
 5675\H,3.0782353034,-1.1458191812,0.318038636\O,-0.3305824319,-0.53844
 95096,-2.7277806722\H,0.2902786991,-0.2769227197,-3.4176542\H,-1.21127
 55689,-0.3027116456,-3.0429571698\O,0.527441508,-2.7294663874,-0.33439
 29874\H,0.2700935076,-3.4186348385,0.288880334\H,0.2874025651,-3.04581
 27899,-1.2134403326\\Version=ES64L-G09RevD.01\State=3-AG\HF=-1966.1641
 812\S2=2.004162\S2-1=0.\S2A=2.000011\RMSD=5.829e-09\RMSF=8.616e-03\Dip
 ole=0.,0.,0.\Quadrupole=0.211041,-0.1480685,-0.0629725,-1.3347696,2.04
 23073,1.79697\PG=CI [O(Ni1),X(H12O6)]\\@

 Writing a WFNX file to "Ni23_28.wfx"


 A HARD FALL SHOULD MEAN A HIGH BOUNCE 
 IF ONE IS MADE OF THE RIGHT MATERIAL.

                -- THE CHEMIST ANALYST, MARCH 1950
 Job cpu time:       0 days  9 hours  3 minutes  1.5 seconds.
 File lengths (MBytes):  RWF=     95 Int=      0 D2E=      0 Chk=     12 Scr=      1
 Normal termination of Gaussian 09 at Tue Sep  1 15:38:50 2015.
