 Entering Gaussian System, Link 0=g09
 Input=Ni23_22.com
 Output=Ni23_22.log
 Initial command:
 /opt/SC/aplicaciones/g09-D.01/l1.exe "/tmpu/fercor_g/daram_a/Gau-11845.inp" -scrdir="/tmpu/fercor_g/daram_a/"
 Entering Link 1 = /opt/SC/aplicaciones/g09-D.01/l1.exe PID=     11846.
  
 Copyright (c) 1988,1990,1992,1993,1995,1998,2003,2009,2013,
            Gaussian, Inc.  All Rights Reserved.
  
 This is part of the Gaussian(R) 09 program.  It is based on
 the Gaussian(R) 03 system (copyright 2003, Gaussian, Inc.),
 the Gaussian(R) 98 system (copyright 1998, Gaussian, Inc.),
 the Gaussian(R) 94 system (copyright 1995, Gaussian, Inc.),
 the Gaussian 92(TM) system (copyright 1992, Gaussian, Inc.),
 the Gaussian 90(TM) system (copyright 1990, Gaussian, Inc.),
 the Gaussian 88(TM) system (copyright 1988, Gaussian, Inc.),
 the Gaussian 86(TM) system (copyright 1986, Carnegie Mellon
 University), and the Gaussian 82(TM) system (copyright 1983,
 Carnegie Mellon University). Gaussian is a federally registered
 trademark of Gaussian, Inc.
  
 This software contains proprietary and confidential information,
 including trade secrets, belonging to Gaussian, Inc.
  
 This software is provided under written license and may be
 used, copied, transmitted, or stored only in accord with that
 written license.
  
 The following legend is applicable only to US Government
 contracts under FAR:
  
                    RESTRICTED RIGHTS LEGEND
  
 Use, reproduction and disclosure by the US Government is
 subject to restrictions as set forth in subparagraphs (a)
 and (c) of the Commercial Computer Software - Restricted
 Rights clause in FAR 52.227-19.
  
 Gaussian, Inc.
 340 Quinnipiac St., Bldg. 40, Wallingford CT 06492
  
  
 ---------------------------------------------------------------
 Warning -- This program may not be used in any manner that
 competes with the business of Gaussian, Inc. or will provide
 assistance to any competitor of Gaussian, Inc.  The licensee
 of this program is prohibited from giving any competitor of
 Gaussian, Inc. access to this program.  By using this program,
 the user acknowledges that Gaussian, Inc. is engaged in the
 business of creating and licensing software in the field of
 computational chemistry and represents and warrants to the
 licensee that it is not a competitor of Gaussian, Inc. and that
 it will not use this program in any manner prohibited above.
 ---------------------------------------------------------------
  

 Cite this work as:
 Gaussian 09, Revision D.01,
 M. J. Frisch, G. W. Trucks, H. B. Schlegel, G. E. Scuseria, 
 M. A. Robb, J. R. Cheeseman, G. Scalmani, V. Barone, B. Mennucci, 
 G. A. Petersson, H. Nakatsuji, M. Caricato, X. Li, H. P. Hratchian, 
 A. F. Izmaylov, J. Bloino, G. Zheng, J. L. Sonnenberg, M. Hada, 
 M. Ehara, K. Toyota, R. Fukuda, J. Hasegawa, M. Ishida, T. Nakajima, 
 Y. Honda, O. Kitao, H. Nakai, T. Vreven, J. A. Montgomery, Jr., 
 J. E. Peralta, F. Ogliaro, M. Bearpark, J. J. Heyd, E. Brothers, 
 K. N. Kudin, V. N. Staroverov, T. Keith, R. Kobayashi, J. Normand, 
 K. Raghavachari, A. Rendell, J. C. Burant, S. S. Iyengar, J. Tomasi, 
 M. Cossi, N. Rega, J. M. Millam, M. Klene, J. E. Knox, J. B. Cross, 
 V. Bakken, C. Adamo, J. Jaramillo, R. Gomperts, R. E. Stratmann, 
 O. Yazyev, A. J. Austin, R. Cammi, C. Pomelli, J. W. Ochterski, 
 R. L. Martin, K. Morokuma, V. G. Zakrzewski, G. A. Voth, 
 P. Salvador, J. J. Dannenberg, S. Dapprich, A. D. Daniels, 
 O. Farkas, J. B. Foresman, J. V. Ortiz, J. Cioslowski, 
 and D. J. Fox, Gaussian, Inc., Wallingford CT, 2013.
 
 ******************************************
 Gaussian 09:  ES64L-G09RevD.01 24-Apr-2013
                 1-Sep-2015 
 ******************************************
 %nprocshared=16
 Will use up to   16 processors via shared memory.
 %mem=32GB
 %chk=Ni23_22.chk
 ----------------------------------------------------------------------
 # opt=modredundant 6-311++g(2d,2p) geom=connectivity m062x output=wfnx
 ----------------------------------------------------------------------
 1/14=-1,18=120,19=15,26=3,38=1,57=2/1,3;
 2/9=110,12=2,17=6,18=5,40=1/2;
 3/5=4,6=6,7=1212,11=2,16=1,25=1,30=1,71=1,74=-55/1,2,3;
 4//1;
 5/5=2,38=5/2;
 6/7=2,8=2,9=2,10=2,28=1/1;
 7//1,2,3,16;
 1/14=-1,18=20,19=15,26=3/3(2);
 2/9=110/2;
 99/6=200/99;
 2/9=110/2;
 3/5=4,6=6,7=1212,11=2,16=1,25=1,30=1,71=1,74=-55/1,2,3;
 4/5=5,16=3,69=1/1;
 5/5=2,38=5/2;
 7//1,2,3,16;
 1/14=-1,18=20,19=15,26=3/3(-5);
 2/9=110/2;
 6/7=2,8=2,9=2,10=2,19=2,28=1/1;
 99/6=200,9=1/99;
 -------
 Ni23_22
 -------
 Symbolic Z-matrix:
 Charge =  2 Multiplicity = 3
 Ni                    0.        0.        0. 
 O                    -2.19993   0.01336   0.01198 
 H                    -2.7726   -0.76186   0.0091 
 H                    -2.76037   0.79705   0.03889 
 O                     0.01779  -0.01868   2.19985 
 H                    -0.75597  -0.03315   2.77429 
 H                     0.80312  -0.04431   2.75807 
 O                     0.00887   2.1998    0.02867 
 H                     0.00884   2.78019  -0.74073 
 H                     0.02707   2.75241   0.81819 
 O                     2.19993  -0.01336  -0.01198 
 H                     2.7726    0.76186  -0.0091 
 H                     2.76037  -0.79705  -0.03889 
 O                    -0.01779   0.01868  -2.19985 
 H                     0.75597   0.03315  -2.77429 
 H                    -0.80312   0.04431  -2.75807 
 O                    -0.00887  -2.1998   -0.02867 
 H                    -0.00884  -2.78019   0.74073 
 H                    -0.02707  -2.75241  -0.81819 
 
 Add virtual bond connecting atoms O5         and Ni1        Dist= 4.16D+00.
 Add virtual bond connecting atoms O14        and Ni1        Dist= 4.16D+00.
 Add virtual bond connecting atoms O2         and Ni1        Dist= 4.16D+00.
 Add virtual bond connecting atoms O11        and Ni1        Dist= 4.16D+00.
 Add virtual bond connecting atoms O8         and Ni1        Dist= 4.16D+00.
 Add virtual bond connecting atoms O17        and Ni1        Dist= 4.16D+00.
 The following ModRedundant input section has been read:
 B       1       8 F                                                           
 B       1      14 F                                                           
 B       1      11 F                                                           
 B       1       2 F                                                           
 B       1       5 F                                                           
 B       1      17 F                                                           
 

 GradGradGradGradGradGradGradGradGradGradGradGradGradGradGradGradGradGrad
 Berny optimization.
 Initialization pass.
                           ----------------------------
                           !    Initial Parameters    !
                           ! (Angstroms and Degrees)  !
 --------------------------                            --------------------------
 ! Name  Definition              Value          Derivative Info.                !
 --------------------------------------------------------------------------------
 ! R1    R(1,2)                  2.2            Frozen                          !
 ! R2    R(1,5)                  2.2            Frozen                          !
 ! R3    R(1,8)                  2.2            Frozen                          !
 ! R4    R(1,11)                 2.2            Frozen                          !
 ! R5    R(1,14)                 2.2            Frozen                          !
 ! R6    R(1,17)                 2.2            Frozen                          !
 ! R7    R(2,3)                  0.9638         estimate D2E/DX2                !
 ! R8    R(2,4)                  0.9638         estimate D2E/DX2                !
 ! R9    R(5,6)                  0.9638         estimate D2E/DX2                !
 ! R10   R(5,7)                  0.9639         estimate D2E/DX2                !
 ! R11   R(8,9)                  0.9638         estimate D2E/DX2                !
 ! R12   R(8,10)                 0.9639         estimate D2E/DX2                !
 ! R13   R(11,12)                0.9638         estimate D2E/DX2                !
 ! R14   R(11,13)                0.9638         estimate D2E/DX2                !
 ! R15   R(14,15)                0.9638         estimate D2E/DX2                !
 ! R16   R(14,16)                0.9639         estimate D2E/DX2                !
 ! R17   R(17,18)                0.9638         estimate D2E/DX2                !
 ! R18   R(17,19)                0.9639         estimate D2E/DX2                !
 ! A1    A(2,1,5)               90.1543         estimate D2E/DX2                !
 ! A2    A(2,1,8)               89.879          estimate D2E/DX2                !
 ! A3    A(2,1,14)              89.8457         estimate D2E/DX2                !
 ! A4    A(2,1,17)              90.121          estimate D2E/DX2                !
 ! A5    A(5,1,8)               89.7379         estimate D2E/DX2                !
 ! A6    A(5,1,11)              89.8457         estimate D2E/DX2                !
 ! A7    A(5,1,17)              90.2621         estimate D2E/DX2                !
 ! A8    A(8,1,11)              90.121          estimate D2E/DX2                !
 ! A9    A(8,1,14)              90.2621         estimate D2E/DX2                !
 ! A10   A(11,1,14)             90.1543         estimate D2E/DX2                !
 ! A11   A(11,1,17)             89.879          estimate D2E/DX2                !
 ! A12   A(14,1,17)             89.7379         estimate D2E/DX2                !
 ! A13   A(1,2,3)              126.1044         estimate D2E/DX2                !
 ! A14   A(1,2,4)              125.9115         estimate D2E/DX2                !
 ! A15   A(3,2,4)              107.9738         estimate D2E/DX2                !
 ! A16   A(1,5,6)              126.1297         estimate D2E/DX2                !
 ! A17   A(1,5,7)              125.8691         estimate D2E/DX2                !
 ! A18   A(6,5,7)              107.9711         estimate D2E/DX2                !
 ! A19   A(1,8,9)              126.2818         estimate D2E/DX2                !
 ! A20   A(1,8,10)             125.734          estimate D2E/DX2                !
 ! A21   A(9,8,10)             107.9782         estimate D2E/DX2                !
 ! A22   A(1,11,12)            126.1044         estimate D2E/DX2                !
 ! A23   A(1,11,13)            125.9115         estimate D2E/DX2                !
 ! A24   A(12,11,13)           107.9738         estimate D2E/DX2                !
 ! A25   A(1,14,15)            126.1297         estimate D2E/DX2                !
 ! A26   A(1,14,16)            125.8691         estimate D2E/DX2                !
 ! A27   A(15,14,16)           107.9711         estimate D2E/DX2                !
 ! A28   A(1,17,18)            126.2818         estimate D2E/DX2                !
 ! A29   A(1,17,19)            125.734          estimate D2E/DX2                !
 ! A30   A(18,17,19)           107.9782         estimate D2E/DX2                !
 ! A31   L(2,1,11,5,-1)        180.0            estimate D2E/DX2                !
 ! A32   L(5,1,14,2,-1)        180.0            estimate D2E/DX2                !
 ! A33   L(8,1,17,2,-1)        180.0            estimate D2E/DX2                !
 ! A34   L(2,1,11,5,-2)        180.0            estimate D2E/DX2                !
 ! A35   L(5,1,14,2,-2)        180.0            estimate D2E/DX2                !
 ! A36   L(8,1,17,2,-2)        180.0            estimate D2E/DX2                !
 ! D1    D(5,1,2,3)            -89.9559         estimate D2E/DX2                !
 ! D2    D(5,1,2,4)             88.7341         estimate D2E/DX2                !
 ! D3    D(8,1,2,3)           -179.6935         estimate D2E/DX2                !
 ! D4    D(8,1,2,4)             -1.0035         estimate D2E/DX2                !
 ! D5    D(14,1,2,3)            90.0441         estimate D2E/DX2                !
 ! D6    D(14,1,2,4)           -91.2659         estimate D2E/DX2                !
 ! D7    D(17,1,2,3)             0.3065         estimate D2E/DX2                !
 ! D8    D(17,1,2,4)           178.9965         estimate D2E/DX2                !
 ! D9    D(3,2,11,12)          180.0            estimate D2E/DX2                !
 ! D10   D(3,2,11,13)            1.31           estimate D2E/DX2                !
 ! D11   D(4,2,11,12)           -1.31           estimate D2E/DX2                !
 ! D12   D(4,2,11,13)          180.0            estimate D2E/DX2                !
 ! D13   D(2,1,5,6)              1.0568         estimate D2E/DX2                !
 ! D14   D(2,1,5,7)            178.8179         estimate D2E/DX2                !
 ! D15   D(8,1,5,6)             90.9351         estimate D2E/DX2                !
 ! D16   D(8,1,5,7)            -91.3038         estimate D2E/DX2                !
 ! D17   D(11,1,5,6)          -178.9432         estimate D2E/DX2                !
 ! D18   D(11,1,5,7)            -1.1821         estimate D2E/DX2                !
 ! D19   D(17,1,5,6)           -89.0649         estimate D2E/DX2                !
 ! D20   D(17,1,5,7)            88.6962         estimate D2E/DX2                !
 ! D21   D(6,5,14,15)          180.0            estimate D2E/DX2                !
 ! D22   D(6,5,14,16)            2.2388         estimate D2E/DX2                !
 ! D23   D(7,5,14,15)           -2.2388         estimate D2E/DX2                !
 ! D24   D(7,5,14,16)          180.0            estimate D2E/DX2                !
 ! D25   D(2,1,8,9)            -90.1358         estimate D2E/DX2                !
 ! D26   D(2,1,8,10)            90.8598         estimate D2E/DX2                !
 ! D27   D(5,1,8,9)            179.7093         estimate D2E/DX2                !
 ! D28   D(5,1,8,10)             0.7049         estimate D2E/DX2                !
 ! D29   D(11,1,8,9)            89.8642         estimate D2E/DX2                !
 ! D30   D(11,1,8,10)          -89.1402         estimate D2E/DX2                !
 ! D31   D(14,1,8,9)            -0.2907         estimate D2E/DX2                !
 ! D32   D(14,1,8,10)         -179.2951         estimate D2E/DX2                !
 ! D33   D(9,8,17,18)          180.0            estimate D2E/DX2                !
 ! D34   D(9,8,17,19)           -0.9956         estimate D2E/DX2                !
 ! D35   D(10,8,17,18)           0.9956         estimate D2E/DX2                !
 ! D36   D(10,8,17,19)         180.0            estimate D2E/DX2                !
 ! D37   D(5,1,11,12)          -90.0441         estimate D2E/DX2                !
 ! D38   D(5,1,11,13)           91.2659         estimate D2E/DX2                !
 ! D39   D(8,1,11,12)           -0.3065         estimate D2E/DX2                !
 ! D40   D(8,1,11,13)         -178.9965         estimate D2E/DX2                !
 ! D41   D(14,1,11,12)          89.9559         estimate D2E/DX2                !
 ! D42   D(14,1,11,13)         -88.7341         estimate D2E/DX2                !
 ! D43   D(17,1,11,12)         179.6935         estimate D2E/DX2                !
 ! D44   D(17,1,11,13)           1.0035         estimate D2E/DX2                !
 ! D45   D(2,1,14,15)          178.9432         estimate D2E/DX2                !
 ! D46   D(2,1,14,16)            1.1821         estimate D2E/DX2                !
 ! D47   D(8,1,14,15)           89.0649         estimate D2E/DX2                !
 ! D48   D(8,1,14,16)          -88.6962         estimate D2E/DX2                !
 ! D49   D(11,1,14,15)          -1.0568         estimate D2E/DX2                !
 ! D50   D(11,1,14,16)        -178.8179         estimate D2E/DX2                !
 ! D51   D(17,1,14,15)         -90.9351         estimate D2E/DX2                !
 ! D52   D(17,1,14,16)          91.3038         estimate D2E/DX2                !
 ! D53   D(2,1,17,18)          -89.8642         estimate D2E/DX2                !
 ! D54   D(2,1,17,19)           89.1402         estimate D2E/DX2                !
 ! D55   D(5,1,17,18)            0.2907         estimate D2E/DX2                !
 ! D56   D(5,1,17,19)          179.2951         estimate D2E/DX2                !
 ! D57   D(11,1,17,18)          90.1358         estimate D2E/DX2                !
 ! D58   D(11,1,17,19)         -90.8598         estimate D2E/DX2                !
 ! D59   D(14,1,17,18)        -179.7093         estimate D2E/DX2                !
 ! D60   D(14,1,17,19)          -0.7049         estimate D2E/DX2                !
 --------------------------------------------------------------------------------
 Trust Radius=3.00D-01 FncErr=1.00D-07 GrdErr=1.00D-06
 Number of steps in this run=    114 maximum allowed number of steps=    114.
 GradGradGradGradGradGradGradGradGradGradGradGradGradGradGradGradGradGrad

                          Input orientation:                          
 ---------------------------------------------------------------------
 Center     Atomic      Atomic             Coordinates (Angstroms)
 Number     Number       Type             X           Y           Z
 ---------------------------------------------------------------------
      1         28           0        0.000000    0.000000    0.000000
      2          8           0       -2.199927    0.013357    0.011980
      3          1           0       -2.772598   -0.761858    0.009099
      4          1           0       -2.760368    0.797049    0.038891
      5          8           0        0.017791   -0.018678    2.199849
      6          1           0       -0.755968   -0.033151    2.774289
      7          1           0        0.803119   -0.044308    2.758074
      8          8           0        0.008866    2.199795    0.028670
      9          1           0        0.008837    2.780190   -0.740733
     10          1           0        0.027073    2.752410    0.818190
     11          8           0        2.199927   -0.013357   -0.011980
     12          1           0        2.772598    0.761858   -0.009099
     13          1           0        2.760368   -0.797049   -0.038891
     14          8           0       -0.017791    0.018678   -2.199849
     15          1           0        0.755968    0.033151   -2.774289
     16          1           0       -0.803119    0.044308   -2.758074
     17          8           0       -0.008866   -2.199795   -0.028670
     18          1           0       -0.008837   -2.780190    0.740733
     19          1           0       -0.027073   -2.752410   -0.818190
 ---------------------------------------------------------------------
                    Distance matrix (angstroms):
                    1          2          3          4          5
     1  Ni   0.000000
     2  O    2.200000   0.000000
     3  H    2.875380   0.963804   0.000000
     4  H    2.873400   0.963842   1.559240   0.000000
     5  O    2.200000   3.115457   3.624635   3.612938   0.000000
     6  H    2.875633   3.117296   3.499156   3.491311   0.963791
     7  H    2.872966   4.069723   4.567001   4.560732   0.963853
     8  O    2.200000   3.107983   4.063043   3.104265   3.104146
     9  H    2.877190   3.619473   4.565604   3.494161   4.059651
    10  H    2.871573   3.621039   4.565399   3.492932   3.096449
    11  O    2.200000   4.400000   5.028588   5.026318   3.107077
    12  H    2.875380   5.028588   5.750760   5.533286   3.616302
    13  H    2.873400   5.026318   5.533286   5.746801   3.624850
    14  O    2.200000   3.107077   3.616302   3.624850   4.400000
    15  H    2.875633   4.062142   4.563996   4.567508   5.028880
    16  H    2.872966   3.102455   3.490844   3.495776   5.025819
    17  O    2.200000   3.114553   3.115654   4.068955   3.118378
    18  H    2.877190   3.624343   3.499618   4.567290   3.123408
    19  H    2.871573   3.613854   3.490646   4.561156   4.072329
                    6          7          8          9         10
     6  H    0.000000
     7  H    1.559211   0.000000
     8  O    3.620696   3.621668   0.000000
     9  H    4.566749   4.566215   0.963763   0.000000
    10  H    3.492682   3.490992   0.963876   1.559277   0.000000
    11  O    4.062142   3.102455   3.114553   3.624343   3.613854
    12  H    4.563996   3.490844   3.115654   3.499618   3.490646
    13  H    4.567508   3.495776   4.068955   4.567290   4.561156
    14  O    5.028880   5.025819   3.118378   3.123408   4.072329
    15  H    5.751266   5.533106   3.620647   3.498540   4.564161
    16  H    5.533106   5.745932   3.615437   3.494852   4.562094
    17  O    3.620647   3.615437   4.400000   5.030666   5.024222
    18  H    3.498540   3.494852   5.030666   5.754380   5.533259
    19  H    4.564161   4.562094   5.024222   5.533259   5.743145
                   11         12         13         14         15
    11  O    0.000000
    12  H    0.963804   0.000000
    13  H    0.963842   1.559240   0.000000
    14  O    3.115457   3.624635   3.612938   0.000000
    15  H    3.117296   3.499156   3.491311   0.963791   0.000000
    16  H    4.069723   4.567001   4.560732   0.963853   1.559211
    17  O    3.107983   4.063043   3.104265   3.104146   3.620696
    18  H    3.619473   4.565604   3.494161   4.059651   4.566749
    19  H    3.621039   4.565399   3.492932   3.096449   3.492682
                   16         17         18         19
    16  H    0.000000
    17  O    3.621668   0.000000
    18  H    4.566215   0.963763   0.000000
    19  H    3.490992   0.963876   1.559277   0.000000
 Stoichiometry    H12NiO6(2+,3)
 Framework group  CI[O(Ni),X(H12O6)]
 Deg. of freedom    24
 Full point group                 CI      NOp   2
 Largest Abelian subgroup         CI      NOp   2
 Largest concise Abelian subgroup CI      NOp   2
                         Standard orientation:                         
 ---------------------------------------------------------------------
 Center     Atomic      Atomic             Coordinates (Angstroms)
 Number     Number       Type             X           Y           Z
 ---------------------------------------------------------------------
      1         28           0        0.000000    0.000000    0.000000
      2          8           0       -2.199927    0.013357    0.011980
      3          1           0       -2.772598   -0.761858    0.009099
      4          1           0       -2.760368    0.797049    0.038891
      5          8           0        0.017791   -0.018678    2.199849
      6          1           0       -0.755968   -0.033151    2.774289
      7          1           0        0.803119   -0.044308    2.758074
      8          8           0        0.008866    2.199795    0.028670
      9          1           0        0.008837    2.780190   -0.740733
     10          1           0        0.027073    2.752410    0.818190
     11          8           0        2.199927   -0.013357   -0.011980
     12          1           0        2.772598    0.761858   -0.009099
     13          1           0        2.760368   -0.797049   -0.038891
     14          8           0       -0.017791    0.018678   -2.199849
     15          1           0        0.755968    0.033151   -2.774289
     16          1           0       -0.803119    0.044308   -2.758074
     17          8           0       -0.008866   -2.199795   -0.028670
     18          1           0       -0.008837   -2.780190    0.740733
     19          1           0       -0.027073   -2.752410   -0.818190
 ---------------------------------------------------------------------
 Rotational constants (GHZ):      1.3456926      1.3440848      1.3395784
 Standard basis: 6-311++G(2d,2p) (5D, 7F)
 There are   181 symmetry adapted cartesian basis functions of AG  symmetry.
 There are   188 symmetry adapted cartesian basis functions of AU  symmetry.
 There are   171 symmetry adapted basis functions of AG  symmetry.
 There are   176 symmetry adapted basis functions of AU  symmetry.
   347 basis functions,   500 primitive gaussians,   369 cartesian basis functions
    44 alpha electrons       42 beta electrons
       nuclear repulsion energy       668.1450816284 Hartrees.
 NAtoms=   19 NActive=   19 NUniq=   10 SFac= 3.61D+00 NAtFMM=   60 NAOKFM=F Big=F
 Integral buffers will be    131072 words long.
 Raffenetti 2 integral format.
 Two-electron integral symmetry is turned on.
 One-electron integrals computed using PRISM.
 NBasis=   347 RedAO= T EigKep=  2.43D-04  NBF=   171   176
 NBsUse=   347 1.00D-06 EigRej= -1.00D+00 NBFU=   171   176
 ExpMin= 1.39D-02 ExpMax= 2.85D+05 ExpMxC= 9.63D+03 IAcc=3 IRadAn=         5 AccDes= 0.00D+00
 Harris functional with IExCor= 1009 and IRadAn=       5 diagonalized for initial guess.
 HarFok:  IExCor= 1009 AccDes= 0.00D+00 IRadAn=         5 IDoV= 1 UseB2=F ITyADJ=14
 ICtDFT=  3500011 ScaDFX=  1.000000  1.000000  1.000000  1.000000
 FoFCou: FMM=F IPFlag=           0 FMFlag=      100000 FMFlg1=           0
         NFxFlg=           0 DoJE=T BraDBF=F KetDBF=T FulRan=T
         wScrn=  0.000000 ICntrl=     500 IOpCl=  0 I1Cent=   200000004 NGrid=           0
         NMat0=    1 NMatS0=      1 NMatT0=    0 NMatD0=    1 NMtDS0=    0 NMtDT0=    0
 Petite list used in FoFCou.
 Initial guess orbital symmetries:
 Alpha Orbitals:
       Occupied  (AG) (AG) (AU) (AU) (AU) (AG) (AG) (AU) (AG) (AU)
                 (AU) (AG) (AU) (AU) (AU) (AG) (AU) (AU) (AU) (AG)
                 (AG) (AG) (AG) (AU) (AG) (AU) (AU) (AG) (AU) (AU)
                 (AU) (AG) (AG) (AG) (AG) (AG) (AU) (AU) (AU) (AG)
                 (AG) (AG) (AG) (AG)
       Virtual   (AG) (AU) (AU) (AU) (AG) (AG) (AG) (AG) (AG) (AG)
                 (AU) (AU) (AU) (AG) (AU) (AU) (AU) (AG) (AG) (AG)
                 (AG) (AG) (AG) (AU) (AU) (AU) (AU) (AU) (AU) (AU)
                 (AU) (AU) (AG) (AG) (AG) (AG) (AG) (AG) (AU) (AU)
                 (AU) (AG) (AG) (AG) (AU) (AU) (AU) (AG) (AG) (AG)
                 (AU) (AU) (AU) (AG) (AG) (AU) (AG) (AU) (AU) (AG)
                 (AU) (AU) (AU) (AG) (AG) (AG) (AG) (AG) (AU) (AU)
                 (AU) (AG) (AU) (AU) (AU) (AG) (AG) (AG) (AG) (AG)
                 (AU) (AU) (AU) (AG) (AG) (AU) (AU) (AU) (AG) (AG)
                 (AG) (AG) (AU) (AU) (AU) (AG) (AG) (AG) (AU) (AU)
                 (AU) (AU) (AU) (AU) (AG) (AG) (AG) (AG) (AG) (AG)
                 (AU) (AU) (AU) (AG) (AG) (AG) (AG) (AG) (AU) (AU)
                 (AU) (AG) (AG) (AG) (AU) (AU) (AU) (AG) (AU) (AU)
                 (AU) (AG) (AG) (AG) (AU) (AG) (AG) (AG) (AU) (AU)
                 (AU) (AU) (AU) (AG) (AG) (AG) (AU) (AU) (AU) (AG)
                 (AG) (AG) (AG) (AG) (AG) (AU) (AU) (AU) (AU) (AU)
                 (AU) (AU) (AG) (AG) (AU) (AU) (AU) (AG) (AG) (AG)
                 (AU) (AU) (AU) (AG) (AG) (AG) (AG) (AU) (AU) (AU)
                 (AG) (AG) (AU) (AU) (AU) (AG) (AG) (AG) (AU) (AU)
                 (AU) (AU) (AU) (AU) (AG) (AG) (AG) (AG) (AG) (AG)
                 (AU) (AU) (AU) (AU) (AU) (AU) (AG) (AG) (AG) (AG)
                 (AG) (AG) (AG) (AU) (AU) (AU) (AG) (AG) (AU) (AU)
                 (AU) (AG) (AU) (AU) (AU) (AG) (AG) (AG) (AG) (AG)
                 (AG) (AU) (AU) (AU) (AU) (AU) (AU) (AG) (AG) (AG)
                 (AG) (AG) (AG) (AU) (AU) (AU) (AG) (AG) (AG) (AG)
                 (AG) (AU) (AU) (AU) (AU) (AU) (AU) (AG) (AG) (AG)
                 (AG) (AG) (AG) (AU) (AU) (AU) (AG) (AU) (AU) (AU)
                 (AG) (AG) (AG) (AU) (AU) (AU) (AU) (AU) (AU) (AU)
                 (AG) (AG) (AG) (AG) (AG) (AU) (AU) (AU) (AU) (AU)
                 (AU) (AG) (AU) (AU) (AU) (AU) (AU) (AU) (AG) (AG)
                 (AG) (AG) (AG)
 Beta  Orbitals:
       Occupied  (AG) (AG) (AU) (AU) (AU) (AG) (AG) (AU) (AG) (AU)
                 (AU) (AG) (AU) (AU) (AU) (AG) (AU) (AU) (AU) (AG)
                 (AG) (AG) (AG) (AU) (AG) (AU) (AU) (AG) (AU) (AU)
                 (AU) (AG) (AG) (AG) (AG) (AG) (AU) (AU) (AU) (AG)
                 (AG) (AG)
       Virtual   (AG) (AG) (AG) (AU) (AU) (AU) (AG) (AG) (AG) (AG)
                 (AG) (AG) (AU) (AU) (AU) (AG) (AU) (AU) (AU) (AG)
                 (AG) (AG) (AG) (AG) (AG) (AU) (AU) (AU) (AU) (AU)
                 (AU) (AU) (AU) (AU) (AG) (AG) (AG) (AG) (AG) (AG)
                 (AU) (AU) (AU) (AG) (AG) (AG) (AU) (AU) (AU) (AG)
                 (AG) (AG) (AU) (AU) (AU) (AG) (AG) (AU) (AG) (AU)
                 (AU) (AG) (AU) (AU) (AU) (AG) (AG) (AG) (AG) (AG)
                 (AU) (AU) (AU) (AG) (AU) (AU) (AU) (AG) (AG) (AG)
                 (AG) (AG) (AU) (AU) (AU) (AG) (AG) (AU) (AU) (AU)
                 (AG) (AG) (AG) (AG) (AU) (AU) (AU) (AG) (AG) (AG)
                 (AU) (AU) (AU) (AU) (AU) (AU) (AG) (AG) (AG) (AG)
                 (AG) (AG) (AU) (AU) (AU) (AG) (AG) (AG) (AG) (AG)
                 (AU) (AU) (AU) (AG) (AG) (AG) (AU) (AU) (AU) (AG)
                 (AU) (AU) (AU) (AG) (AG) (AG) (AU) (AG) (AG) (AG)
                 (AU) (AU) (AU) (AU) (AU) (AG) (AG) (AG) (AU) (AU)
                 (AU) (AG) (AG) (AG) (AG) (AG) (AG) (AU) (AU) (AU)
                 (AU) (AU) (AU) (AU) (AG) (AG) (AU) (AU) (AU) (AG)
                 (AG) (AG) (AU) (AU) (AU) (AG) (AG) (AG) (AG) (AU)
                 (AU) (AU) (AG) (AG) (AU) (AU) (AU) (AG) (AG) (AG)
                 (AU) (AU) (AU) (AU) (AU) (AU) (AG) (AG) (AG) (AG)
                 (AG) (AG) (AU) (AU) (AU) (AU) (AU) (AU) (AG) (AG)
                 (AG) (AG) (AG) (AG) (AG) (AU) (AU) (AU) (AG) (AG)
                 (AU) (AU) (AU) (AG) (AU) (AU) (AU) (AG) (AG) (AG)
                 (AG) (AG) (AG) (AU) (AU) (AU) (AU) (AU) (AU) (AG)
                 (AG) (AG) (AG) (AG) (AG) (AU) (AU) (AU) (AG) (AG)
                 (AG) (AG) (AG) (AU) (AU) (AU) (AU) (AU) (AU) (AG)
                 (AG) (AG) (AG) (AG) (AG) (AU) (AU) (AU) (AG) (AU)
                 (AU) (AU) (AG) (AG) (AG) (AU) (AU) (AU) (AU) (AU)
                 (AU) (AU) (AG) (AG) (AG) (AG) (AG) (AU) (AU) (AU)
                 (AU) (AU) (AU) (AG) (AU) (AU) (AU) (AU) (AU) (AU)
                 (AG) (AG) (AG) (AG) (AG)
 The electronic state of the initial guess is 3-AG.
 Initial guess <Sx>= 0.0000 <Sy>= 0.0000 <Sz>= 1.0000 <S**2>= 2.0000 S= 1.0000
 Keep R1 and R2 ints in memory in symmetry-blocked form, NReq=2734803760.
 Requested convergence on RMS density matrix=1.00D-08 within 128 cycles.
 Requested convergence on MAX density matrix=1.00D-06.
 Requested convergence on             energy=1.00D-06.
 No special actions if energy rises.
 EnCoef did   100 forward-backward iterations
 SCF Done:  E(UM062X) =  -1966.34420714     A.U. after   19 cycles
            NFock= 19  Conv=0.80D-08     -V/T= 2.0017
 <Sx>= 0.0000 <Sy>= 0.0000 <Sz>= 1.0000 <S**2>= 2.0038 S= 1.0013
 <L.S>= 0.000000000000E+00
 Annihilation of the first spin contaminant:
 S**2 before annihilation     2.0038,   after     2.0000

 **********************************************************************

            Population analysis using the SCF density.

 **********************************************************************

 Orbital symmetries:
 Alpha Orbitals:
       Occupied  (AG) (AG) (AU) (AU) (AU) (AG) (AU) (AG) (AU) (AG)
                 (AU) (AG) (AU) (AU) (AU) (AG) (AU) (AU) (AU) (AG)
                 (AG) (AG) (AG) (AG) (AU) (AU) (AU) (AG) (AG) (AG)
                 (AG) (AG) (AG) (AU) (AU) (AU) (AG) (AG) (AU) (AU)
                 (AU) (AG) (AG) (AG)
       Virtual   (AG) (AU) (AU) (AU) (AG) (AG) (AG) (AG) (AG) (AG)
                 (AU) (AU) (AU) (AU) (AU) (AU) (AG) (AG) (AG) (AG)
                 (AU) (AU) (AU) (AG) (AG) (AG) (AU) (AU) (AU) (AU)
                 (AU) (AU) (AG) (AG) (AG) (AG) (AG) (AG) (AG) (AG)
                 (AG) (AU) (AU) (AU) (AU) (AU) (AU) (AG) (AG) (AG)
                 (AG) (AU) (AU) (AU) (AU) (AU) (AU) (AG) (AG) (AG)
                 (AG) (AG) (AU) (AU) (AU) (AG) (AG) (AG) (AU) (AU)
                 (AU) (AG) (AU) (AU) (AU) (AG) (AG) (AG) (AG) (AG)
                 (AU) (AU) (AU) (AG) (AG) (AU) (AU) (AG) (AG) (AG)
                 (AU) (AG) (AU) (AU) (AU) (AG) (AG) (AG) (AU) (AU)
                 (AU) (AU) (AU) (AU) (AG) (AG) (AG) (AG) (AU) (AG)
                 (AG) (AU) (AU) (AG) (AG) (AG) (AG) (AG) (AU) (AU)
                 (AU) (AG) (AG) (AG) (AU) (AU) (AU) (AG) (AU) (AU)
                 (AU) (AG) (AG) (AG) (AG) (AG) (AG) (AU) (AU) (AU)
                 (AU) (AG) (AG) (AG) (AU) (AU) (AU) (AU) (AU) (AG)
                 (AG) (AG) (AG) (AG) (AU) (AG) (AU) (AU) (AU) (AU)
                 (AU) (AU) (AG) (AG) (AU) (AU) (AU) (AG) (AG) (AG)
                 (AU) (AU) (AU) (AG) (AG) (AG) (AG) (AU) (AU) (AU)
                 (AG) (AG) (AU) (AU) (AU) (AG) (AG) (AG) (AU) (AU)
                 (AU) (AU) (AU) (AU) (AG) (AG) (AG) (AG) (AG) (AG)
                 (AU) (AU) (AU) (AU) (AU) (AU) (AG) (AG) (AG) (AG)
                 (AG) (AG) (AG) (AU) (AU) (AU) (AG) (AG) (AU) (AU)
                 (AU) (AG) (AU) (AU) (AU) (AG) (AG) (AG) (AG) (AG)
                 (AG) (AU) (AU) (AU) (AU) (AU) (AU) (AG) (AG) (AG)
                 (AG) (AG) (AG) (AU) (AU) (AU) (AG) (AG) (AG) (AG)
                 (AG) (AU) (AU) (AU) (AU) (AU) (AU) (AG) (AG) (AG)
                 (AU) (AG) (AG) (AU) (AG) (AU) (AG) (AU) (AU) (AU)
                 (AU) (AG) (AG) (AG) (AU) (AU) (AU) (AU) (AU) (AU)
                 (AG) (AG) (AG) (AG) (AG) (AU) (AU) (AU) (AU) (AU)
                 (AU) (AG) (AU) (AU) (AU) (AU) (AU) (AU) (AG) (AG)
                 (AG) (AG) (AG)
 Beta  Orbitals:
       Occupied  (AG) (AG) (AU) (AU) (AU) (AG) (AU) (AG) (AU) (AG)
                 (AU) (AG) (AU) (AU) (AU) (AG) (AU) (AU) (AU) (AG)
                 (AG) (AG) (AG) (AG) (AU) (AU) (AU) (AG) (AU) (AU)
                 (AU) (AG) (AG) (AG) (AG) (AG) (AU) (AU) (AU) (AG)
                 (AG) (AG)
       Virtual   (AG) (AG) (AG) (AU) (AU) (AU) (AG) (AG) (AG) (AG)
                 (AG) (AU) (AU) (AU) (AG) (AU) (AU) (AU) (AG) (AG)
                 (AG) (AG) (AU) (AU) (AU) (AG) (AG) (AG) (AU) (AU)
                 (AU) (AU) (AU) (AU) (AG) (AG) (AG) (AG) (AG) (AG)
                 (AG) (AG) (AG) (AU) (AU) (AU) (AU) (AU) (AU) (AG)
                 (AG) (AG) (AG) (AU) (AU) (AU) (AU) (AU) (AU) (AG)
                 (AG) (AG) (AG) (AG) (AU) (AU) (AU) (AG) (AG) (AG)
                 (AU) (AU) (AU) (AG) (AU) (AU) (AU) (AG) (AG) (AG)
                 (AG) (AG) (AU) (AU) (AU) (AG) (AG) (AU) (AU) (AG)
                 (AG) (AG) (AU) (AG) (AU) (AU) (AU) (AG) (AG) (AG)
                 (AU) (AU) (AU) (AU) (AU) (AU) (AG) (AG) (AG) (AG)
                 (AU) (AU) (AU) (AG) (AG) (AG) (AG) (AG) (AG) (AG)
                 (AU) (AU) (AU) (AG) (AG) (AG) (AU) (AU) (AU) (AG)
                 (AU) (AU) (AU) (AG) (AG) (AG) (AG) (AG) (AG) (AU)
                 (AU) (AU) (AU) (AG) (AG) (AG) (AU) (AU) (AU) (AU)
                 (AU) (AG) (AG) (AG) (AG) (AG) (AU) (AG) (AU) (AU)
                 (AU) (AU) (AU) (AU) (AG) (AG) (AU) (AU) (AU) (AG)
                 (AU) (AU) (AG) (AG) (AU) (AG) (AG) (AG) (AG) (AU)
                 (AU) (AU) (AG) (AG) (AU) (AU) (AU) (AG) (AG) (AG)
                 (AU) (AU) (AU) (AU) (AU) (AU) (AG) (AG) (AG) (AG)
                 (AG) (AG) (AU) (AU) (AU) (AU) (AU) (AU) (AG) (AG)
                 (AG) (AG) (AG) (AG) (AG) (AU) (AU) (AU) (AG) (AG)
                 (AU) (AU) (AU) (AG) (AU) (AU) (AU) (AG) (AG) (AG)
                 (AG) (AG) (AG) (AU) (AU) (AU) (AU) (AU) (AU) (AG)
                 (AG) (AG) (AG) (AG) (AG) (AU) (AU) (AU) (AG) (AG)
                 (AG) (AG) (AG) (AU) (AU) (AU) (AU) (AU) (AU) (AG)
                 (AG) (AG) (AG) (AG) (AG) (AU) (AU) (AU) (AG) (AU)
                 (AU) (AU) (AU) (AG) (AG) (AG) (AU) (AU) (AU) (AU)
                 (AU) (AU) (AG) (AG) (AG) (AG) (AG) (AU) (AU) (AU)
                 (AU) (AU) (AU) (AG) (AU) (AU) (AU) (AU) (AU) (AU)
                 (AG) (AG) (AG) (AG) (AG)
 The electronic state is 3-AG.
 Alpha  occ. eigenvalues -- -302.22663 -36.83301 -32.27234 -32.27233 -32.27229
 Alpha  occ. eigenvalues --  -19.95989 -19.95989 -19.95989 -19.95989 -19.95988
 Alpha  occ. eigenvalues --  -19.95988  -4.72000  -3.30140  -3.30138  -3.30129
 Alpha  occ. eigenvalues --   -1.47049  -1.46506  -1.46503  -1.46497  -1.46329
 Alpha  occ. eigenvalues --   -1.46328  -0.94607  -0.94601  -0.94587  -0.94377
 Alpha  occ. eigenvalues --   -0.94372  -0.94363  -0.93423  -0.93423  -0.88196
 Alpha  occ. eigenvalues --   -0.86855  -0.86853  -0.86850  -0.83681  -0.83665
 Alpha  occ. eigenvalues --   -0.83616  -0.77723  -0.77721  -0.73612  -0.73562
 Alpha  occ. eigenvalues --   -0.73544  -0.73294  -0.73282  -0.73275
 Alpha virt. eigenvalues --   -0.29017  -0.24612  -0.24586  -0.24579  -0.21084
 Alpha virt. eigenvalues --   -0.21083  -0.19216  -0.19212  -0.19209  -0.17609
 Alpha virt. eigenvalues --   -0.17021  -0.17014  -0.16998  -0.12777  -0.12742
 Alpha virt. eigenvalues --   -0.12732  -0.11635  -0.08809  -0.08808  -0.07818
 Alpha virt. eigenvalues --   -0.07226  -0.07213  -0.07186  -0.06695  -0.06662
 Alpha virt. eigenvalues --   -0.06569  -0.04648  -0.04617  -0.04610  -0.02769
 Alpha virt. eigenvalues --   -0.02768  -0.02755  -0.02725  -0.02717  -0.02714
 Alpha virt. eigenvalues --   -0.02322  -0.02321   0.01475   0.01521   0.01620
 Alpha virt. eigenvalues --    0.01787   0.01911   0.01925   0.01931   0.04825
 Alpha virt. eigenvalues --    0.04832   0.04848   0.08568   0.15276   0.15279
 Alpha virt. eigenvalues --    0.15443   0.16847   0.16875   0.16884   0.18508
 Alpha virt. eigenvalues --    0.18832   0.18871   0.19110   0.19292   0.19805
 Alpha virt. eigenvalues --    0.30631   0.30632   0.31307   0.31408   0.31422
 Alpha virt. eigenvalues --    0.32848   0.33086   0.33165   0.35003   0.35020
 Alpha virt. eigenvalues --    0.35027   0.36229   0.39553   0.40986   0.40991
 Alpha virt. eigenvalues --    0.43762   0.43910   0.43976   0.44598   0.44606
 Alpha virt. eigenvalues --    0.57934   0.58161   0.58238   0.61786   0.61794
 Alpha virt. eigenvalues --    0.63353   0.63477   0.63628   0.63674   0.63757
 Alpha virt. eigenvalues --    0.63780   0.64098   0.67099   0.67203   0.67247
 Alpha virt. eigenvalues --    0.69150   0.69276   0.69331   0.74519   0.74547
 Alpha virt. eigenvalues --    0.74655   0.83192   0.83232   0.83389   0.84380
 Alpha virt. eigenvalues --    0.87910   0.87981   0.88234   0.94537   0.94617
 Alpha virt. eigenvalues --    0.94627   0.95034   0.95226   0.99180   0.99677
 Alpha virt. eigenvalues --    0.99821   1.05148   1.05149   1.16452   1.16470
 Alpha virt. eigenvalues --    1.16477   1.17883   1.17914   1.17987   1.20070
 Alpha virt. eigenvalues --    1.20098   1.20137   1.22947   1.36727   1.36763
 Alpha virt. eigenvalues --    1.36793   1.38177   1.38231   1.43782   1.43816
 Alpha virt. eigenvalues --    1.43905   1.45319   1.46166   1.46863   1.47029
 Alpha virt. eigenvalues --    1.47522   1.49889   1.50064   1.50070   1.51249
 Alpha virt. eigenvalues --    1.51259   1.53901   1.54564   1.54774   1.56000
 Alpha virt. eigenvalues --    1.56018   1.65384   1.65428   1.65436   1.65894
 Alpha virt. eigenvalues --    1.68225   1.75111   1.75112   1.75135   1.88878
 Alpha virt. eigenvalues --    1.88926   1.89025   1.93646   1.93657   1.96306
 Alpha virt. eigenvalues --    1.96393   1.96679   2.04740   2.07711   2.07730
 Alpha virt. eigenvalues --    2.09618   2.09717   2.09951   2.14659   2.14748
 Alpha virt. eigenvalues --    2.14795   2.26145   2.29809   2.29820   2.29865
 Alpha virt. eigenvalues --    2.43974   2.43987   2.44478   2.44829   2.44963
 Alpha virt. eigenvalues --    2.59161   2.59351   2.59430   2.65276   2.65519
 Alpha virt. eigenvalues --    2.65648   3.41038   3.42207   3.42216   3.44121
 Alpha virt. eigenvalues --    3.44285   3.44735   3.51462   3.51483   3.51548
 Alpha virt. eigenvalues --    3.53373   3.53409   3.53450   3.56829   3.56832
 Alpha virt. eigenvalues --    3.56847   3.56912   3.58401   3.58403   3.58454
 Alpha virt. eigenvalues --    3.82699   3.82770   3.82953   3.84230   3.84373
 Alpha virt. eigenvalues --    3.84417   3.84915   3.84917   3.85463   3.85492
 Alpha virt. eigenvalues --    3.85509   3.92326   3.95827   3.95865   3.95874
 Alpha virt. eigenvalues --    4.00297   4.00302   4.04325   4.90145   4.90261
 Alpha virt. eigenvalues --    4.90282   4.90352   4.90369   4.90385   5.45429
 Alpha virt. eigenvalues --    5.45665   5.45759   5.50409   5.52327   5.52336
 Alpha virt. eigenvalues --    5.94309   5.94418   5.94463   5.95696   5.95783
 Alpha virt. eigenvalues --    5.95837   6.38672   6.38677   6.49516   6.49529
 Alpha virt. eigenvalues --    6.49532   6.52458   6.52643   6.53178   6.54078
 Alpha virt. eigenvalues --    6.54554   6.54555   6.56772   6.56902   6.56917
 Alpha virt. eigenvalues --    6.64291   6.64458   6.64538   6.64628   6.64691
 Alpha virt. eigenvalues --    6.64733   6.74070   6.90395   6.93165   6.93213
 Alpha virt. eigenvalues --    6.93365   6.97340   6.98160   6.98168   6.98764
 Alpha virt. eigenvalues --    6.98791   6.98835   7.12359   7.12377   7.12425
 Alpha virt. eigenvalues --    7.12931   7.12939   7.13982   7.14077   7.14229
 Alpha virt. eigenvalues --    7.30070   7.30120   7.30258   8.70978   8.71423
 Alpha virt. eigenvalues --    8.71599  29.95276  36.27003  36.27366  36.27512
 Alpha virt. eigenvalues --   49.74584  49.74683  49.74727  49.75001  49.75002
 Alpha virt. eigenvalues --   49.75940 162.38397 844.85711
  Beta  occ. eigenvalues -- -302.22780 -36.76774 -32.21925 -32.21925 -32.21925
  Beta  occ. eigenvalues --  -19.95902 -19.95902 -19.95902 -19.95901 -19.95901
  Beta  occ. eigenvalues --  -19.95901  -4.62300  -3.17074  -3.17074  -3.17073
  Beta  occ. eigenvalues --   -1.46886  -1.46336  -1.46333  -1.46326  -1.46137
  Beta  occ. eigenvalues --   -1.46137  -0.94410  -0.94404  -0.94391  -0.94295
  Beta  occ. eigenvalues --   -0.94290  -0.94282  -0.87863  -0.83226  -0.83209
  Beta  occ. eigenvalues --   -0.83156  -0.82570  -0.82569  -0.80340  -0.80333
  Beta  occ. eigenvalues --   -0.80329  -0.73480  -0.73425  -0.73406  -0.72803
  Beta  occ. eigenvalues --   -0.72797  -0.72791
  Beta virt. eigenvalues --   -0.31140  -0.31139  -0.28829  -0.24595  -0.24570
  Beta virt. eigenvalues --   -0.24563  -0.20770  -0.20770  -0.19196  -0.19193
  Beta virt. eigenvalues --   -0.19189  -0.17004  -0.16997  -0.16982  -0.16924
  Beta virt. eigenvalues --   -0.12671  -0.12637  -0.12628  -0.11213  -0.08754
  Beta virt. eigenvalues --   -0.08753  -0.07811  -0.07134  -0.07121  -0.07094
  Beta virt. eigenvalues --   -0.06635  -0.06602  -0.06512  -0.04575  -0.04542
  Beta virt. eigenvalues --   -0.04534  -0.02742  -0.02740  -0.02727  -0.02686
  Beta virt. eigenvalues --   -0.02678  -0.02675  -0.02243  -0.02241   0.01531
  Beta virt. eigenvalues --    0.01580   0.01690   0.01870   0.02118   0.02132
  Beta virt. eigenvalues --    0.02137   0.04795   0.04802   0.04817   0.08537
  Beta virt. eigenvalues --    0.15249   0.15252   0.15503   0.17075   0.17094
  Beta virt. eigenvalues --    0.17102   0.18566   0.18905   0.18946   0.19289
  Beta virt. eigenvalues --    0.19470   0.19981   0.30836   0.30837   0.31314
  Beta virt. eigenvalues --    0.31415   0.31430   0.32978   0.33221   0.33301
  Beta virt. eigenvalues --    0.35003   0.35020   0.35027   0.36227   0.39536
  Beta virt. eigenvalues --    0.40969   0.40974   0.43745   0.43897   0.43958
  Beta virt. eigenvalues --    0.45662   0.45665   0.57940   0.58168   0.58246
  Beta virt. eigenvalues --    0.62706   0.62716   0.63415   0.63539   0.63672
  Beta virt. eigenvalues --    0.63706   0.63792   0.63843   0.64183   0.67124
  Beta virt. eigenvalues --    0.67223   0.67266   0.69122   0.69248   0.69301
  Beta virt. eigenvalues --    0.74510   0.74537   0.74640   0.83149   0.83189
  Beta virt. eigenvalues --    0.83347   0.84498   0.87835   0.87906   0.88159
  Beta virt. eigenvalues --    0.94464   0.94963   0.95158   0.95223   0.95235
  Beta virt. eigenvalues --    0.99150   0.99655   0.99797   1.05808   1.05808
  Beta virt. eigenvalues --    1.16328   1.16344   1.16351   1.17884   1.17916
  Beta virt. eigenvalues --    1.17992   1.20083   1.20111   1.20150   1.22962
  Beta virt. eigenvalues --    1.36742   1.36779   1.36810   1.38783   1.38838
  Beta virt. eigenvalues --    1.45221   1.45257   1.45362   1.45387   1.46206
  Beta virt. eigenvalues --    1.47332   1.47505   1.48020   1.50170   1.50351
  Beta virt. eigenvalues --    1.50358   1.51260   1.51269   1.53994   1.54663
  Beta virt. eigenvalues --    1.54877   1.56691   1.56708   1.65522   1.65582
  Beta virt. eigenvalues --    1.65588   1.65924   1.68320   1.76082   1.76084
  Beta virt. eigenvalues --    1.76115   1.90319   1.90369   1.90465   1.95103
  Beta virt. eigenvalues --    1.95114   1.96600   1.96681   1.96952   2.04762
  Beta virt. eigenvalues --    2.10203   2.10304   2.10399   2.10418   2.10540
  Beta virt. eigenvalues --    2.14669   2.14761   2.14807   2.26180   2.30303
  Beta virt. eigenvalues --    2.30304   2.30326   2.43996   2.44008   2.45281
  Beta virt. eigenvalues --    2.45593   2.45712   2.59165   2.59354   2.59433
  Beta virt. eigenvalues --    2.65350   2.65594   2.65723   3.41047   3.42216
  Beta virt. eigenvalues --    3.42225   3.44127   3.44291   3.44743   3.51462
  Beta virt. eigenvalues --    3.51483   3.51548   3.53359   3.53395   3.53436
  Beta virt. eigenvalues --    3.56854   3.56857   3.56873   3.58387   3.58404
  Beta virt. eigenvalues --    3.58407   3.60651   3.82753   3.82824   3.83007
  Beta virt. eigenvalues --    3.84371   3.84514   3.84558   3.85117   3.85119
  Beta virt. eigenvalues --    3.85520   3.85549   3.85566   3.93266   3.95872
  Beta virt. eigenvalues --    3.95910   3.95920   4.00409   4.00414   4.06229
  Beta virt. eigenvalues --    4.90264   4.90380   4.90401   4.90482   4.90501
  Beta virt. eigenvalues --    4.90517   5.45698   5.45933   5.46026   5.50768
  Beta virt. eigenvalues --    5.52564   5.52573   5.94393   5.94501   5.94546
  Beta virt. eigenvalues --    5.95801   5.95887   5.95940   6.48063   6.48072
  Beta virt. eigenvalues --    6.51176   6.51224   6.51226   6.53415   6.53597
  Beta virt. eigenvalues --    6.54127   6.54316   6.54680   6.54685   6.59550
  Beta virt. eigenvalues --    6.59614   6.59621   6.64841   6.64906   6.65029
  Beta virt. eigenvalues --    6.66290   6.66628   6.66735   6.74143   6.94218
  Beta virt. eigenvalues --    6.94266   6.94405   6.95143   6.97460   6.98642
  Beta virt. eigenvalues --    6.98649   7.04305   7.04334   7.04389   7.12550
  Beta virt. eigenvalues --    7.12572   7.12629   7.14142   7.14224   7.14391
  Beta virt. eigenvalues --    7.23085   7.23092   7.36559   7.36607   7.36740
  Beta virt. eigenvalues --    8.78832   8.79278   8.79454  30.07455  36.36032
  Beta virt. eigenvalues --   36.36402  36.36549  49.74553  49.74652  49.74696
  Beta virt. eigenvalues --   49.74970  49.74970  49.75909 162.38267 844.85246
          Condensed to atoms (all electrons):
               1          2          3          4          5          6
     1  Ni  27.283764   0.153838  -0.030173  -0.030407   0.153922  -0.030176
     2  O    0.153838   7.767566   0.283040   0.283015  -0.030306   0.004755
     3  H   -0.030173   0.283040   0.393710  -0.003371   0.001523   0.000000
     4  H   -0.030407   0.283015  -0.003371   0.393502   0.001576  -0.000010
     5  O    0.153922  -0.030306   0.001523   0.001576   7.767529   0.283030
     6  H   -0.030176   0.004755   0.000000  -0.000010   0.283030   0.393720
     7  H   -0.030498   0.000638   0.000305   0.000315   0.282983  -0.003327
     8  O    0.153880  -0.030782   0.000628   0.004861  -0.031032   0.001634
     9  H   -0.030022   0.001604   0.000307  -0.000005   0.000620   0.000307
    10  H   -0.030623   0.001587   0.000311   0.000012   0.004937  -0.000002
    11  O    0.153838   0.004401   0.000106   0.000110  -0.030826   0.000627
    12  H   -0.030173   0.000106   0.000066  -0.000086   0.001623   0.000310
    13  H   -0.030407   0.000110  -0.000086   0.000066   0.001571   0.000308
    14  O    0.153922  -0.030826   0.001623   0.001571   0.004400   0.000106
    15  H   -0.030176   0.000627   0.000310   0.000308   0.000106   0.000066
    16  H   -0.030498   0.004877  -0.000005   0.000014   0.000110  -0.000086
    17  O    0.153880  -0.030377   0.004773   0.000635  -0.030120   0.001524
    18  H   -0.030022   0.001538  -0.000005   0.000303   0.004702  -0.000007
    19  H   -0.030623   0.001586  -0.000008   0.000315   0.000644   0.000307
               7          8          9         10         11         12
     1  Ni  -0.030498   0.153880  -0.030022  -0.030623   0.153838  -0.030173
     2  O    0.000638  -0.030782   0.001604   0.001587   0.004401   0.000106
     3  H    0.000305   0.000628   0.000307   0.000311   0.000106   0.000066
     4  H    0.000315   0.004861  -0.000005   0.000012   0.000110  -0.000086
     5  O    0.282983  -0.031032   0.000620   0.004937  -0.030826   0.001623
     6  H   -0.003327   0.001634   0.000307  -0.000002   0.000627   0.000310
     7  H    0.393551   0.001613   0.000310   0.000011   0.004877  -0.000005
     8  O    0.001613   7.767558   0.283087   0.282936  -0.030377   0.004773
     9  H    0.000310   0.283087   0.393687  -0.003355   0.001538  -0.000005
    10  H    0.000011   0.282936  -0.003355   0.393602   0.001586  -0.000008
    11  O    0.004877  -0.030377   0.001538   0.001586   7.767566   0.283040
    12  H   -0.000005   0.004773  -0.000005  -0.000008   0.283040   0.393710
    13  H    0.000014   0.000635   0.000303   0.000315   0.283015  -0.003371
    14  O    0.000110  -0.030120   0.004702   0.000644  -0.030306   0.001523
    15  H   -0.000086   0.001524  -0.000007   0.000307   0.004755   0.000000
    16  H    0.000066   0.001552  -0.000009   0.000314   0.000638   0.000305
    17  O    0.001552   0.004402   0.000104   0.000112  -0.030782   0.000628
    18  H   -0.000009   0.000104   0.000066  -0.000086   0.001604   0.000307
    19  H    0.000314   0.000112  -0.000086   0.000066   0.001587   0.000311
              13         14         15         16         17         18
     1  Ni  -0.030407   0.153922  -0.030176  -0.030498   0.153880  -0.030022
     2  O    0.000110  -0.030826   0.000627   0.004877  -0.030377   0.001538
     3  H   -0.000086   0.001623   0.000310  -0.000005   0.004773  -0.000005
     4  H    0.000066   0.001571   0.000308   0.000014   0.000635   0.000303
     5  O    0.001571   0.004400   0.000106   0.000110  -0.030120   0.004702
     6  H    0.000308   0.000106   0.000066  -0.000086   0.001524  -0.000007
     7  H    0.000014   0.000110  -0.000086   0.000066   0.001552  -0.000009
     8  O    0.000635  -0.030120   0.001524   0.001552   0.004402   0.000104
     9  H    0.000303   0.004702  -0.000007  -0.000009   0.000104   0.000066
    10  H    0.000315   0.000644   0.000307   0.000314   0.000112  -0.000086
    11  O    0.283015  -0.030306   0.004755   0.000638  -0.030782   0.001604
    12  H   -0.003371   0.001523   0.000000   0.000305   0.000628   0.000307
    13  H    0.393502   0.001576  -0.000010   0.000315   0.004861  -0.000005
    14  O    0.001576   7.767529   0.283030   0.282983  -0.031032   0.000620
    15  H   -0.000010   0.283030   0.393720  -0.003327   0.001634   0.000307
    16  H    0.000315   0.282983  -0.003327   0.393551   0.001613   0.000310
    17  O    0.004861  -0.031032   0.001634   0.001613   7.767558   0.283087
    18  H   -0.000005   0.000620   0.000307   0.000310   0.283087   0.393687
    19  H    0.000012   0.004937  -0.000002   0.000011   0.282936  -0.003355
              19
     1  Ni  -0.030623
     2  O    0.001586
     3  H   -0.000008
     4  H    0.000315
     5  O    0.000644
     6  H    0.000307
     7  H    0.000314
     8  O    0.000112
     9  H   -0.000086
    10  H    0.000066
    11  O    0.001587
    12  H    0.000311
    13  H    0.000012
    14  O    0.004937
    15  H   -0.000002
    16  H    0.000011
    17  O    0.282936
    18  H   -0.003355
    19  H    0.393602
          Atomic-Atomic Spin Densities.
               1          2          3          4          5          6
     1  Ni   1.951061  -0.021557   0.002369   0.002376  -0.021561   0.002369
     2  O   -0.021557   0.051559  -0.002292  -0.002316  -0.002056   0.000128
     3  H    0.002369  -0.002292   0.002003   0.000721   0.000134  -0.000041
     4  H    0.002376  -0.002316   0.000721   0.002007   0.000133  -0.000041
     5  O   -0.021561  -0.002056   0.000134   0.000133   0.051564  -0.002285
     6  H    0.002369   0.000128  -0.000041  -0.000041  -0.002285   0.001999
     7  H    0.002380   0.000063  -0.000010  -0.000011  -0.002318   0.000720
     8  O   -0.021559  -0.002063   0.000061   0.000135  -0.002069   0.000136
     9  H    0.002361   0.000136  -0.000011  -0.000042   0.000060  -0.000011
    10  H    0.002386   0.000133  -0.000010  -0.000042   0.000139  -0.000042
    11  O   -0.021557   0.000946  -0.000041  -0.000042  -0.002067   0.000061
    12  H    0.002369  -0.000041   0.000000   0.000009   0.000136  -0.000011
    13  H    0.002376  -0.000042   0.000009   0.000000   0.000134  -0.000010
    14  O   -0.021561  -0.002067   0.000136   0.000134   0.000946  -0.000041
    15  H    0.002369   0.000061  -0.000011  -0.000010  -0.000041   0.000000
    16  H    0.002380   0.000136  -0.000042  -0.000042  -0.000042   0.000009
    17  O   -0.021559  -0.002056   0.000128   0.000062  -0.002051   0.000134
    18  H    0.002361   0.000135  -0.000041  -0.000010   0.000124  -0.000041
    19  H    0.002386   0.000132  -0.000041  -0.000010   0.000063  -0.000010
               7          8          9         10         11         12
     1  Ni   0.002380  -0.021559   0.002361   0.002386  -0.021557   0.002369
     2  O    0.000063  -0.002063   0.000136   0.000133   0.000946  -0.000041
     3  H   -0.000010   0.000061  -0.000011  -0.000010  -0.000041   0.000000
     4  H   -0.000011   0.000135  -0.000042  -0.000042  -0.000042   0.000009
     5  O   -0.002318  -0.002069   0.000060   0.000139  -0.002067   0.000136
     6  H    0.000720   0.000136  -0.000011  -0.000042   0.000061  -0.000011
     7  H    0.002003   0.000134  -0.000010  -0.000042   0.000136  -0.000042
     8  O    0.000134   0.051554  -0.002273  -0.002332  -0.002056   0.000128
     9  H   -0.000010  -0.002273   0.002005   0.000721   0.000135  -0.000041
    10  H   -0.000042  -0.002332   0.000721   0.002002   0.000132  -0.000041
    11  O    0.000136  -0.002056   0.000135   0.000132   0.051559  -0.002292
    12  H   -0.000042   0.000128  -0.000041  -0.000041  -0.002292   0.002003
    13  H   -0.000042   0.000062  -0.000010  -0.000010  -0.002316   0.000721
    14  O   -0.000042  -0.002051   0.000124   0.000063  -0.002056   0.000134
    15  H    0.000009   0.000134  -0.000041  -0.000010   0.000128  -0.000041
    16  H    0.000000   0.000132  -0.000040  -0.000010   0.000063  -0.000010
    17  O    0.000132   0.000946  -0.000041  -0.000042  -0.002063   0.000061
    18  H   -0.000040  -0.000041   0.000000   0.000009   0.000136  -0.000011
    19  H   -0.000010  -0.000042   0.000009   0.000000   0.000133  -0.000010
              13         14         15         16         17         18
     1  Ni   0.002376  -0.021561   0.002369   0.002380  -0.021559   0.002361
     2  O   -0.000042  -0.002067   0.000061   0.000136  -0.002056   0.000135
     3  H    0.000009   0.000136  -0.000011  -0.000042   0.000128  -0.000041
     4  H    0.000000   0.000134  -0.000010  -0.000042   0.000062  -0.000010
     5  O    0.000134   0.000946  -0.000041  -0.000042  -0.002051   0.000124
     6  H   -0.000010  -0.000041   0.000000   0.000009   0.000134  -0.000041
     7  H   -0.000042  -0.000042   0.000009   0.000000   0.000132  -0.000040
     8  O    0.000062  -0.002051   0.000134   0.000132   0.000946  -0.000041
     9  H   -0.000010   0.000124  -0.000041  -0.000040  -0.000041   0.000000
    10  H   -0.000010   0.000063  -0.000010  -0.000010  -0.000042   0.000009
    11  O   -0.002316  -0.002056   0.000128   0.000063  -0.002063   0.000136
    12  H    0.000721   0.000134  -0.000041  -0.000010   0.000061  -0.000011
    13  H    0.002007   0.000133  -0.000041  -0.000011   0.000135  -0.000042
    14  O    0.000133   0.051564  -0.002285  -0.002318  -0.002069   0.000060
    15  H   -0.000041  -0.002285   0.001999   0.000720   0.000136  -0.000011
    16  H   -0.000011  -0.002318   0.000720   0.002003   0.000134  -0.000010
    17  O    0.000135  -0.002069   0.000136   0.000134   0.051554  -0.002273
    18  H   -0.000042   0.000060  -0.000011  -0.000010  -0.002273   0.002005
    19  H   -0.000042   0.000139  -0.000042  -0.000042  -0.002332   0.000721
              19
     1  Ni   0.002386
     2  O    0.000132
     3  H   -0.000041
     4  H   -0.000010
     5  O    0.000063
     6  H   -0.000010
     7  H   -0.000010
     8  O   -0.000042
     9  H    0.000009
    10  H    0.000000
    11  O    0.000133
    12  H   -0.000010
    13  H   -0.000042
    14  O    0.000139
    15  H   -0.000042
    16  H   -0.000042
    17  O   -0.002332
    18  H    0.000721
    19  H    0.002002
 Mulliken charges and spin densities:
               1          2
     1  Ni   0.156759   1.850184
     2  O   -0.386995   0.018938
     3  H    0.346946   0.003021
     4  H    0.347275   0.003011
     5  O   -0.386992   0.018941
     6  H    0.346916   0.003022
     7  H    0.347266   0.003008
     8  O   -0.386986   0.018935
     9  H    0.346854   0.003031
    10  H    0.347336   0.003002
    11  O   -0.386995   0.018938
    12  H    0.346946   0.003021
    13  H    0.347275   0.003011
    14  O   -0.386992   0.018941
    15  H    0.346916   0.003022
    16  H    0.347266   0.003008
    17  O   -0.386986   0.018935
    18  H    0.346854   0.003031
    19  H    0.347336   0.003002
 Sum of Mulliken charges =   2.00000   2.00000
 Mulliken charges and spin densities with hydrogens summed into heavy atoms:
               1          2
     1  Ni   0.156759   1.850184
     2  O    0.307226   0.024969
     5  O    0.307190   0.024971
     8  O    0.307204   0.024968
    11  O    0.307226   0.024969
    14  O    0.307190   0.024971
    17  O    0.307204   0.024968
 Electronic spatial extent (au):  <R**2>=           1213.9565
 Charge=              2.0000 electrons
 Dipole moment (field-independent basis, Debye):
    X=              0.0000    Y=              0.0000    Z=              0.0000  Tot=              0.0000
 Quadrupole moment (field-independent basis, Debye-Ang):
   XX=            -13.5751   YY=            -13.5727   ZZ=            -13.5798
   XY=              0.0686   XZ=             -0.0772   YZ=             -0.1304
 Traceless Quadrupole moment (field-independent basis, Debye-Ang):
   XX=              0.0008   YY=              0.0031   ZZ=             -0.0039
   XY=              0.0686   XZ=             -0.0772   YZ=             -0.1304
 Octapole moment (field-independent basis, Debye-Ang**2):
  XXX=              0.0000  YYY=              0.0000  ZZZ=              0.0000  XYY=              0.0000
  XXY=              0.0000  XXZ=              0.0000  XZZ=              0.0000  YZZ=              0.0000
  YYZ=              0.0000  XYZ=              0.0000
 Hexadecapole moment (field-independent basis, Debye-Ang**3):
 XXXX=           -104.7206 YYYY=           -104.7205 ZZZZ=           -104.8984 XXXY=             -0.9186
 XXXZ=             -3.0454 YYYX=              2.2856 YYYZ=              1.9627 ZZZX=              1.2700
 ZZZY=             -5.0142 XXYY=           -110.5483 XXZZ=           -110.5285 YYZZ=           -110.4639
 XXYZ=              0.0437 YYXZ=              0.0444 ZZXY=              0.0376
 N-N= 6.681450816284D+02 E-N=-5.991897546891D+03  KE= 1.962948718448D+03
 Symmetry AG   KE= 1.230247840064D+03
 Symmetry AU   KE= 7.327008783849D+02
                          Isotropic Fermi Contact Couplings
        Atom                 a.u.       MegaHertz       Gauss      10(-4) cm-1
     1  Ni(61)            -1.12884     225.84074      80.58559      75.33236
     2  O(17)              0.07744     -23.47271      -8.37565      -7.82965
     3  H(1)               0.00067       1.50836       0.53822       0.50313
     4  H(1)               0.00066       1.48529       0.52999       0.49544
     5  O(17)              0.07742     -23.46593      -8.37323      -7.82739
     6  H(1)               0.00068       1.51006       0.53883       0.50370
     7  H(1)               0.00066       1.47894       0.52772       0.49332
     8  O(17)              0.07744     -23.47328      -8.37585      -7.82984
     9  H(1)               0.00068       1.53014       0.54599       0.51040
    10  H(1)               0.00066       1.46392       0.52236       0.48831
    11  O(17)              0.07744     -23.47271      -8.37565      -7.82965
    12  H(1)               0.00067       1.50836       0.53822       0.50313
    13  H(1)               0.00066       1.48529       0.52999       0.49544
    14  O(17)              0.07742     -23.46593      -8.37323      -7.82739
    15  H(1)               0.00068       1.51006       0.53883       0.50370
    16  H(1)               0.00066       1.47894       0.52772       0.49332
    17  O(17)              0.07744     -23.47328      -8.37585      -7.82984
    18  H(1)               0.00068       1.53014       0.54599       0.51040
    19  H(1)               0.00066       1.46392       0.52236       0.48831
 --------------------------------------------------------
       Center         ----  Spin Dipole Couplings  ----
                      3XX-RR        3YY-RR        3ZZ-RR
 --------------------------------------------------------
     1   Atom        0.000112     -0.000091     -0.000020
     2   Atom        0.138371     -0.070812     -0.067559
     3   Atom        0.021321     -0.006517     -0.014804
     4   Atom        0.021058     -0.006242     -0.014817
     5   Atom       -0.070825     -0.067570      0.138395
     6   Atom       -0.006563     -0.014796      0.021359
     7   Atom       -0.006190     -0.014822      0.021013
     8   Atom       -0.067557      0.138325     -0.070768
     9   Atom       -0.014781      0.021458     -0.006677
    10   Atom       -0.014846      0.020914     -0.006068
    11   Atom        0.138371     -0.070812     -0.067559
    12   Atom        0.021321     -0.006517     -0.014804
    13   Atom        0.021058     -0.006242     -0.014817
    14   Atom       -0.070825     -0.067570      0.138395
    15   Atom       -0.006563     -0.014796      0.021359
    16   Atom       -0.006190     -0.014822      0.021013
    17   Atom       -0.067557      0.138325     -0.070768
    18   Atom       -0.014781      0.021458     -0.006677
    19   Atom       -0.014846      0.020914     -0.006068
 --------------------------------------------------------
                        XY            XZ            YZ
 --------------------------------------------------------
     1   Atom       -0.001864      0.002144      0.003205
     2   Atom       -0.001471     -0.000186     -0.000056
     3   Atom        0.011180     -0.000101      0.000007
     4   Atom       -0.011545     -0.000533      0.000320
     5   Atom        0.000021      0.001949     -0.000152
     6   Atom        0.000191     -0.011118     -0.000433
     7   Atom       -0.000322      0.011610     -0.000592
     8   Atom        0.000121     -0.000034      0.003239
     9   Atom        0.000105     -0.000016     -0.010950
    10   Atom        0.000368      0.000221      0.011772
    11   Atom       -0.001471     -0.000186     -0.000056
    12   Atom        0.011180     -0.000101      0.000007
    13   Atom       -0.011545     -0.000533      0.000320
    14   Atom        0.000021      0.001949     -0.000152
    15   Atom        0.000191     -0.011118     -0.000433
    16   Atom       -0.000322      0.011610     -0.000592
    17   Atom        0.000121     -0.000034      0.003239
    18   Atom        0.000105     -0.000016     -0.010950
    19   Atom        0.000368      0.000221      0.011772
 --------------------------------------------------------


 ---------------------------------------------------------------------------------
              Anisotropic Spin Dipole Couplings in Principal Axis System
 ---------------------------------------------------------------------------------

       Atom             a.u.   MegaHertz   Gauss  10(-4) cm-1        Axes

              Baa    -0.0049     0.233     0.083     0.078 -0.4945 -0.6087  0.6205
     1 Ni(61) Bbb     0.0017    -0.081    -0.029    -0.027  0.8614 -0.4387  0.2560
              Bcc     0.0032    -0.152    -0.054    -0.051  0.1164  0.6610  0.7413
 
              Baa    -0.0708     5.125     1.829     1.709  0.0070  0.9998  0.0177
     2 O(17)  Bbb    -0.0676     4.888     1.744     1.631  0.0008 -0.0177  0.9998
              Bcc     0.1384   -10.013    -3.573    -3.340  1.0000 -0.0070 -0.0009
 
              Baa    -0.0148    -7.899    -2.818    -2.635  0.0052 -0.0079  1.0000
     3 H(1)   Bbb    -0.0105    -5.576    -1.990    -1.860 -0.3319  0.9433  0.0092
              Bcc     0.0253    13.475     4.808     4.495  0.9433  0.3319 -0.0023
 
              Baa    -0.0148    -7.912    -2.823    -2.639  0.0050 -0.0305  0.9995
     4 H(1)   Bbb    -0.0105    -5.584    -1.993    -1.863  0.3442  0.9385  0.0269
              Bcc     0.0253    13.496     4.816     4.502  0.9389 -0.3439 -0.0152
 
              Baa    -0.0708     5.126     1.829     1.710  0.9999 -0.0067 -0.0093
     5 O(17)  Bbb    -0.0676     4.889     1.745     1.631  0.0067  1.0000  0.0007
              Bcc     0.1384   -10.015    -3.574    -3.341  0.0093 -0.0007  1.0000
 
              Baa    -0.0148    -7.898    -2.818    -2.634 -0.0121  0.9999  0.0083
     6 H(1)   Bbb    -0.0104    -5.575    -1.989    -1.860  0.9439  0.0086  0.3301
              Bcc     0.0253    13.473     4.807     4.494 -0.3299 -0.0118  0.9439
 
              Baa    -0.0148    -7.915    -2.824    -2.640  0.0266  0.9996  0.0079
     7 H(1)   Bbb    -0.0105    -5.586    -1.993    -1.863  0.9379 -0.0222 -0.3463
              Bcc     0.0253    13.501     4.818     4.504  0.3460 -0.0166  0.9381
 
              Baa    -0.0708     5.124     1.828     1.709  0.0110 -0.0155  0.9998
     8 O(17)  Bbb    -0.0676     4.888     1.744     1.631  0.9999 -0.0004 -0.0110
              Bcc     0.1384   -10.013    -3.573    -3.340  0.0006  0.9999  0.0155
 
              Baa    -0.0148    -7.887    -2.814    -2.631  1.0000 -0.0039 -0.0032
     9 H(1)   Bbb    -0.0104    -5.569    -1.987    -1.857  0.0043  0.3247  0.9458
              Bcc     0.0252    13.455     4.801     4.488  0.0026  0.9458 -0.3247
 
              Baa    -0.0149    -7.924    -2.828    -2.643  0.9998 -0.0036 -0.0204
    10 H(1)   Bbb    -0.0105    -5.592    -1.995    -1.865  0.0178 -0.3512  0.9361
              Bcc     0.0253    13.516     4.823     4.508  0.0105  0.9363  0.3511
 
              Baa    -0.0708     5.125     1.829     1.709  0.0070  0.9998  0.0177
    11 O(17)  Bbb    -0.0676     4.888     1.744     1.631  0.0008 -0.0177  0.9998
              Bcc     0.1384   -10.013    -3.573    -3.340  1.0000 -0.0070 -0.0009
 
              Baa    -0.0148    -7.899    -2.818    -2.635  0.0052 -0.0079  1.0000
    12 H(1)   Bbb    -0.0105    -5.576    -1.990    -1.860 -0.3319  0.9433  0.0092
              Bcc     0.0253    13.475     4.808     4.495  0.9433  0.3319 -0.0023
 
              Baa    -0.0148    -7.912    -2.823    -2.639  0.0050 -0.0305  0.9995
    13 H(1)   Bbb    -0.0105    -5.584    -1.993    -1.863  0.3442  0.9385  0.0269
              Bcc     0.0253    13.496     4.816     4.502  0.9389 -0.3439 -0.0152
 
              Baa    -0.0708     5.126     1.829     1.710  0.9999 -0.0067 -0.0093
    14 O(17)  Bbb    -0.0676     4.889     1.745     1.631  0.0067  1.0000  0.0007
              Bcc     0.1384   -10.015    -3.574    -3.341  0.0093 -0.0007  1.0000
 
              Baa    -0.0148    -7.898    -2.818    -2.634 -0.0121  0.9999  0.0083
    15 H(1)   Bbb    -0.0104    -5.575    -1.989    -1.860  0.9439  0.0086  0.3301
              Bcc     0.0253    13.473     4.807     4.494 -0.3299 -0.0118  0.9439
 
              Baa    -0.0148    -7.915    -2.824    -2.640  0.0266  0.9996  0.0079
    16 H(1)   Bbb    -0.0105    -5.586    -1.993    -1.863  0.9379 -0.0222 -0.3463
              Bcc     0.0253    13.501     4.818     4.504  0.3460 -0.0166  0.9381
 
              Baa    -0.0708     5.124     1.828     1.709  0.0110 -0.0155  0.9998
    17 O(17)  Bbb    -0.0676     4.888     1.744     1.631  0.9999 -0.0004 -0.0110
              Bcc     0.1384   -10.013    -3.573    -3.340  0.0006  0.9999  0.0155
 
              Baa    -0.0148    -7.887    -2.814    -2.631  1.0000 -0.0039 -0.0032
    18 H(1)   Bbb    -0.0104    -5.569    -1.987    -1.857  0.0043  0.3247  0.9458
              Bcc     0.0252    13.455     4.801     4.488  0.0026  0.9458 -0.3247
 
              Baa    -0.0149    -7.924    -2.828    -2.643  0.9998 -0.0036 -0.0204
    19 H(1)   Bbb    -0.0105    -5.592    -1.995    -1.865  0.0178 -0.3512  0.9361
              Bcc     0.0253    13.516     4.823     4.508  0.0105  0.9363  0.3511
 

 ---------------------------------------------------------------------------------

 Calling FoFJK, ICntrl=      2127 FMM=F ISym2X=1 I1Cent= 0 IOpClX= 1 NMat=1 NMatS=1 NMatT=0.
 ***** Axes restored to original set *****
 -------------------------------------------------------------------
 Center     Atomic                   Forces (Hartrees/Bohr)
 Number     Number              X              Y              Z
 -------------------------------------------------------------------
      1       28           0.000000000    0.000000000    0.000000000
      2        8           0.016384331   -0.000096084   -0.000127487
      3        1           0.000525431   -0.000053455   -0.000000589
      4        1           0.000531328    0.000031609   -0.000003995
      5        8          -0.000117614    0.000218434   -0.016383814
      6        1          -0.000058838    0.000000076   -0.000524632
      7        1           0.000027157   -0.000004378   -0.000531139
      8        8          -0.000091471   -0.016393237   -0.000158550
      9        1          -0.000002628   -0.000525944   -0.000070080
     10        1          -0.000004033   -0.000517957    0.000006288
     11        8          -0.016384331    0.000096084    0.000127487
     12        1          -0.000525431    0.000053455    0.000000589
     13        1          -0.000531328   -0.000031609    0.000003995
     14        8           0.000117614   -0.000218434    0.016383814
     15        1           0.000058838   -0.000000076    0.000524632
     16        1          -0.000027157    0.000004378    0.000531139
     17        8           0.000091471    0.016393237    0.000158550
     18        1           0.000002628    0.000525944    0.000070080
     19        1           0.000004033    0.000517957   -0.000006288
 -------------------------------------------------------------------
 Cartesian Forces:  Max     0.016393237 RMS     0.005322604

 GradGradGradGradGradGradGradGradGradGradGradGradGradGradGradGradGradGrad
 Berny optimization.
 FormGI is forming the generalized inverse of G from B-inverse, IUseBI=4.
 Internal  Forces:  Max     0.017441990 RMS     0.004005149
 Search for a local minimum.
 Step number   1 out of a maximum of  114
 All quantities printed in internal units (Hartrees-Bohrs-Radians)
 Mixed Optimization -- En-DIIS/RFO-DIIS
 Second derivative matrix not updated -- first step.
 ITU=  0
     Eigenvalues ---    0.00230   0.00230   0.00230   0.00230   0.00230
     Eigenvalues ---    0.00230   0.00230   0.00230   0.00230   0.00230
     Eigenvalues ---    0.00231   0.00231   0.05494   0.05495   0.05496
     Eigenvalues ---    0.06422   0.06423   0.06424   0.12536   0.12637
     Eigenvalues ---    0.12672   0.16000   0.16000   0.16000   0.16000
     Eigenvalues ---    0.16000   0.16000   0.16000   0.16000   0.16000
     Eigenvalues ---    0.16000   0.16000   0.16000   0.54648   0.54648
     Eigenvalues ---    0.54653   0.54653   0.54655   0.54655   0.54663
     Eigenvalues ---    0.54663   0.54666   0.54666   0.54672   0.54672
     Eigenvalues --- 1000.000001000.000001000.000001000.000001000.00000
     Eigenvalues --- 1000.000001000.000001000.000001000.000001000.00000
     Eigenvalues --- 1000.000001000.000001000.000001000.000001000.00000
     Eigenvalues --- 1000.000001000.000001000.000001000.000001000.00000
     Eigenvalues --- 1000.000001000.000001000.000001000.000001000.00000
     Eigenvalues --- 1000.000001000.000001000.000001000.000001000.00000
     Eigenvalues --- 1000.000001000.000001000.000001000.000001000.00000
     Eigenvalues --- 1000.000001000.000001000.000001000.000001000.00000
     Eigenvalues --- 1000.000001000.000001000.000001000.000001000.00000
     Eigenvalues --- 1000.000001000.000001000.000001000.000001000.00000
     Eigenvalues --- 1000.000001000.000001000.000001000.000001000.00000
     Eigenvalues --- 1000.000001000.000001000.000001000.000001000.00000
     Eigenvalues --- 1000.000001000.000001000.000001000.000001000.00000
     Eigenvalues --- 1000.000001000.000001000.000001000.00000
 RFO step:  Lambda=-1.90977813D-05 EMin= 2.30000000D-03
 Linear search not attempted -- first point.
 Iteration  1 RMS(Cart)=  0.00118729 RMS(Int)=  0.00000253
 Iteration  2 RMS(Cart)=  0.00000183 RMS(Int)=  0.00000083
 Iteration  3 RMS(Cart)=  0.00000000 RMS(Int)=  0.00000083
 Iteration  1 RMS(Cart)=  0.00000000 RMS(Int)=  0.00000000
 ClnCor:  largest displacement from symmetrization is 2.09D-08 for atom    13.
 Variable       Old X    -DE/DX   Delta X   Delta X   Delta X     New X
                                 (Linear)    (Quad)   (Total)
    R1        4.15740  -0.01744   0.00000   0.00000   0.00000   4.15740
    R2        4.15740  -0.01744   0.00000   0.00000   0.00000   4.15740
    R3        4.15740  -0.01744   0.00000   0.00000   0.00000   4.15740
    R4        4.15740  -0.01744   0.00000   0.00000   0.00000   4.15740
    R5        4.15740  -0.01744   0.00000   0.00000   0.00000   4.15740
    R6        4.15740  -0.01744   0.00000   0.00000   0.00000   4.15740
    R7        1.82133  -0.00027   0.00000  -0.00050  -0.00050   1.82083
    R8        1.82140  -0.00028   0.00000  -0.00051  -0.00051   1.82089
    R9        1.82130  -0.00027   0.00000  -0.00049  -0.00049   1.82081
   R10        1.82142  -0.00028   0.00000  -0.00051  -0.00051   1.82090
   R11        1.82125  -0.00027   0.00000  -0.00049  -0.00049   1.82076
   R12        1.82146  -0.00029   0.00000  -0.00052  -0.00052   1.82094
   R13        1.82133  -0.00027   0.00000  -0.00050  -0.00050   1.82083
   R14        1.82140  -0.00028   0.00000  -0.00051  -0.00051   1.82089
   R15        1.82130  -0.00027   0.00000  -0.00049  -0.00049   1.82081
   R16        1.82142  -0.00028   0.00000  -0.00051  -0.00051   1.82090
   R17        1.82125  -0.00027   0.00000  -0.00049  -0.00049   1.82076
   R18        1.82146  -0.00029   0.00000  -0.00052  -0.00052   1.82094
    A1        1.57349   0.00001   0.00000   0.00009   0.00009   1.57358
    A2        1.56868  -0.00001   0.00000  -0.00005  -0.00005   1.56863
    A3        1.56810  -0.00001   0.00000  -0.00009  -0.00009   1.56801
    A4        1.57291   0.00001   0.00000   0.00005   0.00005   1.57296
    A5        1.56622  -0.00002   0.00000  -0.00019  -0.00019   1.56603
    A6        1.56810  -0.00001   0.00000  -0.00009  -0.00009   1.56801
    A7        1.57537   0.00002   0.00000   0.00019   0.00019   1.57556
    A8        1.57291   0.00001   0.00000   0.00005   0.00005   1.57296
    A9        1.57537   0.00002   0.00000   0.00019   0.00019   1.57556
   A10        1.57349   0.00001   0.00000   0.00009   0.00009   1.57358
   A11        1.56868  -0.00001   0.00000  -0.00005  -0.00005   1.56863
   A12        1.56622  -0.00002   0.00000  -0.00019  -0.00019   1.56603
   A13        2.20094  -0.00027   0.00000  -0.00170  -0.00170   2.19923
   A14        2.19757  -0.00028   0.00000  -0.00176  -0.00176   2.19581
   A15        1.88450   0.00055   0.00000   0.00342   0.00342   1.88792
   A16        2.20138  -0.00027   0.00000  -0.00175  -0.00175   2.19963
   A17        2.19683  -0.00028   0.00000  -0.00178  -0.00179   2.19504
   A18        1.88445   0.00055   0.00000   0.00339   0.00338   1.88784
   A19        2.20403  -0.00029   0.00000  -0.00180  -0.00180   2.20223
   A20        2.19447  -0.00025   0.00000  -0.00159  -0.00159   2.19288
   A21        1.88458   0.00054   0.00000   0.00337   0.00337   1.88794
   A22        2.20094  -0.00027   0.00000  -0.00170  -0.00170   2.19923
   A23        2.19757  -0.00028   0.00000  -0.00176  -0.00176   2.19581
   A24        1.88450   0.00055   0.00000   0.00342   0.00342   1.88792
   A25        2.20138  -0.00027   0.00000  -0.00175  -0.00175   2.19963
   A26        2.19683  -0.00028   0.00000  -0.00178  -0.00179   2.19504
   A27        1.88445   0.00055   0.00000   0.00339   0.00338   1.88784
   A28        2.20403  -0.00029   0.00000  -0.00180  -0.00180   2.20223
   A29        2.19447  -0.00025   0.00000  -0.00159  -0.00159   2.19288
   A30        1.88458   0.00054   0.00000   0.00337   0.00337   1.88794
   A31        3.14159   0.00000   0.00000   0.00000   0.00000   3.14159
   A32        3.14159   0.00000   0.00000   0.00000   0.00000   3.14159
   A33        3.14159   0.00000   0.00000   0.00000   0.00000   3.14159
   A34        3.14159   0.00000   0.00000   0.00000   0.00000   3.14159
   A35        3.14159   0.00000   0.00000   0.00000   0.00000   3.14159
   A36        3.14159   0.00000   0.00000   0.00000   0.00000   3.14159
    D1       -1.57003  -0.00001   0.00000   0.00119   0.00119  -1.56884
    D2        1.54870  -0.00002   0.00000  -0.00145  -0.00145   1.54725
    D3       -3.13624   0.00002   0.00000   0.00138   0.00138  -3.13486
    D4       -0.01751   0.00001   0.00000  -0.00126  -0.00126  -0.01877
    D5        1.57157  -0.00001   0.00000   0.00119   0.00119   1.57275
    D6       -1.59289  -0.00002   0.00000  -0.00145  -0.00145  -1.59434
    D7        0.00535   0.00002   0.00000   0.00138   0.00138   0.00673
    D8        3.12408   0.00001   0.00000  -0.00126  -0.00126   3.12282
    D9        3.14159   0.00000   0.00000   0.00000   0.00000   3.14159
   D10        0.02286   0.00001   0.00000   0.00264   0.00264   0.02550
   D11       -0.02286  -0.00001   0.00000  -0.00264  -0.00264  -0.02550
   D12        3.14159   0.00000   0.00000   0.00000   0.00000   3.14159
   D13        0.01844   0.00001   0.00000   0.00214   0.00214   0.02058
   D14        3.12096   0.00000   0.00000  -0.00323  -0.00323   3.11774
   D15        1.58712   0.00000   0.00000   0.00209   0.00209   1.58921
   D16       -1.59355  -0.00001   0.00000  -0.00328  -0.00328  -1.59683
   D17       -3.12315   0.00001   0.00000   0.00214   0.00214  -3.12101
   D18       -0.02063   0.00000   0.00000  -0.00323  -0.00323  -0.02386
   D19       -1.55448   0.00000   0.00000   0.00209   0.00209  -1.55239
   D20        1.54804  -0.00001   0.00000  -0.00328  -0.00328   1.54477
   D21        3.14159   0.00000   0.00000   0.00000   0.00000  -3.14159
   D22        0.03908   0.00001   0.00000   0.00537   0.00537   0.04444
   D23       -0.03908  -0.00001   0.00000  -0.00537  -0.00537  -0.04444
   D24        3.14159   0.00000   0.00000   0.00000   0.00000   3.14159
   D25       -1.57317   0.00000   0.00000  -0.00073  -0.00073  -1.57390
   D26        1.58580   0.00001   0.00000   0.00107   0.00107   1.58687
   D27        3.13652  -0.00001   0.00000  -0.00082  -0.00082   3.13570
   D28        0.01230   0.00000   0.00000   0.00098   0.00098   0.01328
   D29        1.56843   0.00000   0.00000  -0.00073  -0.00073   1.56770
   D30       -1.55579   0.00001   0.00000   0.00107   0.00107  -1.55472
   D31       -0.00507  -0.00001   0.00000  -0.00082  -0.00082  -0.00589
   D32       -3.12929   0.00000   0.00000   0.00098   0.00098  -3.12831
   D33        3.14159   0.00000   0.00000   0.00000   0.00000   3.14159
   D34       -0.01738   0.00000   0.00000  -0.00180  -0.00180  -0.01917
   D35        0.01738   0.00000   0.00000   0.00180   0.00180   0.01917
   D36        3.14159   0.00000   0.00000   0.00000   0.00000   3.14159
   D37       -1.57157   0.00001   0.00000  -0.00119  -0.00119  -1.57275
[...]
    12  H   -0.004134   0.001067  -0.000066   0.000240   0.000492   0.000291
    13  H    0.390084   0.001299  -0.000138   0.000333   0.005207  -0.000028
    14  O    0.001299   7.767103   0.283485   0.283634  -0.033086   0.000463
    15  H   -0.000138   0.283485   0.393940  -0.003848   0.001909   0.000287
    16  H    0.000333   0.283634  -0.003848   0.390770   0.001566   0.000337
    17  O    0.005207  -0.033086   0.001909   0.001566   7.767777   0.283711
    18  H   -0.000028   0.000463   0.000287   0.000337   0.283711   0.393784
    19  H    0.000196   0.005422  -0.000054   0.000177   0.283761  -0.004228
              19
     1  Ni  -0.030368
     2  O    0.001397
     3  H   -0.000145
     4  H    0.000329
     5  O    0.000630
     6  H    0.000242
     7  H    0.000329
     8  O    0.000148
     9  H   -0.000074
    10  H    0.000062
    11  O    0.001420
    12  H    0.000337
    13  H    0.000196
    14  O    0.005422
    15  H   -0.000054
    16  H    0.000177
    17  O    0.283761
    18  H   -0.004228
    19  H    0.390562
          Atomic-Atomic Spin Densities.
               1          2          3          4          5          6
     1  Ni   1.951245  -0.021666   0.002288   0.002373  -0.021736   0.002291
     2  O   -0.021666   0.052359  -0.002147  -0.002460  -0.002077   0.000091
     3  H    0.002288  -0.002147   0.001896   0.000699   0.000148  -0.000037
     4  H    0.002373  -0.002460   0.000699   0.001915   0.000127  -0.000030
     5  O   -0.021736  -0.002077   0.000148   0.000127   0.052423  -0.002107
     6  H    0.002291   0.000091  -0.000037  -0.000030  -0.002107   0.001879
     7  H    0.002419   0.000070  -0.000007  -0.000010  -0.002459   0.000684
     8  O   -0.021694  -0.002189   0.000060   0.000184  -0.002209   0.000160
     9  H    0.002259   0.000160  -0.000013  -0.000048   0.000056  -0.000012
    10  H    0.002403   0.000139  -0.000011  -0.000049   0.000190  -0.000049
    11  O   -0.021666   0.000969  -0.000040  -0.000045  -0.002227   0.000058
    12  H    0.002288  -0.000040  -0.000001   0.000008   0.000160  -0.000013
    13  H    0.002373  -0.000045   0.000008   0.000000   0.000144  -0.000011
    14  O   -0.021736  -0.002227   0.000160   0.000144   0.000971  -0.000040
    15  H    0.002291   0.000058  -0.000013  -0.000011  -0.000040   0.000000
    16  H    0.002419   0.000190  -0.000049  -0.000049  -0.000046   0.000008
    17  O   -0.021694  -0.002074   0.000099   0.000069  -0.002047   0.000147
    18  H    0.002259   0.000151  -0.000038  -0.000007   0.000085  -0.000036
    19  H    0.002403   0.000124  -0.000030  -0.000010   0.000069  -0.000007
               7          8          9         10         11         12
     1  Ni   0.002419  -0.021694   0.002259   0.002403  -0.021666   0.002288
     2  O    0.000070  -0.002189   0.000160   0.000139   0.000969  -0.000040
     3  H   -0.000007   0.000060  -0.000013  -0.000011  -0.000040  -0.000001
     4  H   -0.000010   0.000184  -0.000048  -0.000049  -0.000045   0.000008
     5  O   -0.002459  -0.002209   0.000056   0.000190  -0.002227   0.000160
     6  H    0.000684   0.000160  -0.000012  -0.000049   0.000058  -0.000013
     7  H    0.001874   0.000140  -0.000011  -0.000049   0.000190  -0.000049
     8  O    0.000140   0.052221  -0.002116  -0.002494  -0.002074   0.000099
     9  H   -0.000011  -0.002116   0.001937   0.000707   0.000151  -0.000038
    10  H   -0.000049  -0.002494   0.000707   0.001928   0.000124  -0.000030
    11  O    0.000190  -0.002074   0.000151   0.000124   0.052359  -0.002147
    12  H   -0.000049   0.000099  -0.000038  -0.000030  -0.002147   0.001896
    13  H   -0.000049   0.000069  -0.000007  -0.000010  -0.002460   0.000699
    14  O   -0.000046  -0.002047   0.000085   0.000069  -0.002077   0.000148
    15  H    0.000008   0.000147  -0.000036  -0.000007   0.000091  -0.000037
    16  H    0.000000   0.000122  -0.000029  -0.000009   0.000070  -0.000007
    17  O    0.000122   0.000967  -0.000039  -0.000045  -0.002189   0.000060
    18  H   -0.000029  -0.000039  -0.000001   0.000008   0.000160  -0.000013
    19  H   -0.000009  -0.000045   0.000008   0.000000   0.000139  -0.000011
              13         14         15         16         17         18
     1  Ni   0.002373  -0.021736   0.002291   0.002419  -0.021694   0.002259
     2  O   -0.000045  -0.002227   0.000058   0.000190  -0.002074   0.000151
     3  H    0.000008   0.000160  -0.000013  -0.000049   0.000099  -0.000038
     4  H    0.000000   0.000144  -0.000011  -0.000049   0.000069  -0.000007
     5  O    0.000144   0.000971  -0.000040  -0.000046  -0.002047   0.000085
     6  H   -0.000011  -0.000040   0.000000   0.000008   0.000147  -0.000036
     7  H   -0.000049  -0.000046   0.000008   0.000000   0.000122  -0.000029
     8  O    0.000069  -0.002047   0.000147   0.000122   0.000967  -0.000039
     9  H   -0.000007   0.000085  -0.000036  -0.000029  -0.000039  -0.000001
    10  H   -0.000010   0.000069  -0.000007  -0.000009  -0.000045   0.000008
    11  O   -0.002460  -0.002077   0.000091   0.000070  -0.002189   0.000160
    12  H    0.000699   0.000148  -0.000037  -0.000007   0.000060  -0.000013
    13  H    0.001915   0.000127  -0.000030  -0.000010   0.000184  -0.000048
    14  O    0.000127   0.052423  -0.002107  -0.002459  -0.002209   0.000056
    15  H   -0.000030  -0.002107   0.001879   0.000684   0.000160  -0.000012
    16  H   -0.000010  -0.002459   0.000684   0.001874   0.000140  -0.000011
    17  O    0.000184  -0.002209   0.000160   0.000140   0.052221  -0.002116
    18  H   -0.000048   0.000056  -0.000012  -0.000011  -0.002116   0.001937
    19  H   -0.000049   0.000190  -0.000049  -0.000049  -0.002494   0.000707
              19
     1  Ni   0.002403
     2  O    0.000124
     3  H   -0.000030
     4  H   -0.000010
     5  O    0.000069
     6  H   -0.000007
     7  H   -0.000009
     8  O   -0.000045
     9  H    0.000008
    10  H    0.000000
    11  O    0.000139
    12  H   -0.000011
    13  H   -0.000049
    14  O    0.000190
    15  H   -0.000049
    16  H   -0.000049
    17  O   -0.002494
    18  H    0.000707
    19  H    0.001928
 Mulliken charges and spin densities:
               1          2
     1  Ni   0.167937   1.849116
     2  O   -0.389614   0.019387
     3  H    0.345423   0.002974
     4  H    0.349718   0.002800
     5  O   -0.389735   0.019425
     6  H    0.345234   0.002977
     7  H    0.349627   0.002789
     8  O   -0.389773   0.019262
     9  H    0.345293   0.003013
    10  H    0.349859   0.002814
    11  O   -0.389614   0.019387
    12  H    0.345423   0.002974
    13  H    0.349718   0.002800
    14  O   -0.389735   0.019425
    15  H    0.345234   0.002977
    16  H    0.349627   0.002789
    17  O   -0.389773   0.019262
    18  H    0.345293   0.003013
    19  H    0.349859   0.002814
 Sum of Mulliken charges =   2.00000   2.00000
 Mulliken charges and spin densities with hydrogens summed into heavy atoms:
               1          2
     1  Ni   0.167937   1.849116
     2  O    0.305527   0.025162
     5  O    0.305126   0.025191
     8  O    0.305379   0.025089
    11  O    0.305527   0.025162
    14  O    0.305126   0.025191
    17  O    0.305379   0.025089
 Electronic spatial extent (au):  <R**2>=           1212.9157
 Charge=              2.0000 electrons
 Dipole moment (field-independent basis, Debye):
    X=              0.0000    Y=              0.0000    Z=              0.0000  Tot=              0.0000
 Quadrupole moment (field-independent basis, Debye-Ang):
   XX=            -13.8269   YY=            -13.7602   ZZ=            -13.8555
   XY=              0.6476   XZ=             -0.7473   YZ=             -0.7770
 Traceless Quadrupole moment (field-independent basis, Debye-Ang):
   XX=             -0.0127   YY=              0.0540   ZZ=             -0.0413
   XY=              0.6476   XZ=             -0.7473   YZ=             -0.7770
 Octapole moment (field-independent basis, Debye-Ang**2):
  XXX=              0.0000  YYY=              0.0000  ZZZ=              0.0000  XYY=              0.0000
  XXY=              0.0000  XXZ=              0.0000  XZZ=              0.0000  YZZ=              0.0000
  YYZ=              0.0000  XYZ=              0.0000
 Hexadecapole moment (field-independent basis, Debye-Ang**3):
 XXXX=           -108.9459 YYYY=           -107.8418 ZZZZ=           -109.5985 XXXY=              4.6548
 XXXZ=            -12.8747 YYYX=             10.5866 YYYZ=             -4.5499 ZZZX=             -5.2610
 ZZZY=            -14.6432 XXYY=           -110.5757 XXZZ=           -110.6033 YYZZ=           -110.4515
 XXYZ=             -1.6558 YYXZ=             -1.5767 ZZXY=              1.4077
 N-N= 6.684938149317D+02 E-N=-5.992556584349D+03  KE= 1.962958785808D+03
 Symmetry AG   KE= 1.230251306608D+03
 Symmetry AU   KE= 7.327074791998D+02
                          Isotropic Fermi Contact Couplings
        Atom                 a.u.       MegaHertz       Gauss      10(-4) cm-1
     1  Ni(61)            -1.12890     225.85295      80.58995      75.33643
     2  O(17)              0.07631     -23.12997      -8.25335      -7.71533
     3  H(1)               0.00068       1.50908       0.53848       0.50337
     4  H(1)               0.00055       1.22403       0.43677       0.40829
     5  O(17)              0.07617     -23.08827      -8.23847      -7.70142
     6  H(1)               0.00068       1.52184       0.54303       0.50763
     7  H(1)               0.00053       1.18484       0.42278       0.39522
     8  O(17)              0.07666     -23.23564      -8.29105      -7.75057
     9  H(1)               0.00071       1.58547       0.56574       0.52886
    10  H(1)               0.00055       1.22131       0.43579       0.40738
    11  O(17)              0.07631     -23.12997      -8.25335      -7.71533
    12  H(1)               0.00068       1.50908       0.53848       0.50337
    13  H(1)               0.00055       1.22403       0.43677       0.40829
    14  O(17)              0.07617     -23.08827      -8.23847      -7.70142
    15  H(1)               0.00068       1.52184       0.54303       0.50763
    16  H(1)               0.00053       1.18484       0.42278       0.39522
    17  O(17)              0.07666     -23.23564      -8.29105      -7.75057
    18  H(1)               0.00071       1.58547       0.56574       0.52886
    19  H(1)               0.00055       1.22131       0.43579       0.40738
 --------------------------------------------------------
       Center         ----  Spin Dipole Couplings  ----
                      3XX-RR        3YY-RR        3ZZ-RR
 --------------------------------------------------------
     1   Atom       -0.000100     -0.000295      0.000396
     2   Atom        0.139668     -0.072064     -0.067604
     3   Atom        0.021340     -0.006601     -0.014739
     4   Atom        0.021255     -0.006206     -0.015049
     5   Atom       -0.072147     -0.067711      0.139858
     6   Atom       -0.006683     -0.014695      0.021378
     7   Atom       -0.006122     -0.015105      0.021227
     8   Atom       -0.067652      0.139247     -0.071595
     9   Atom       -0.014670      0.021447     -0.006778
    10   Atom       -0.015100      0.021076     -0.005976
    11   Atom        0.139668     -0.072064     -0.067604
    12   Atom        0.021340     -0.006601     -0.014739
    13   Atom        0.021255     -0.006206     -0.015049
    14   Atom       -0.072147     -0.067711      0.139858
    15   Atom       -0.006683     -0.014695      0.021378
    16   Atom       -0.006122     -0.015105      0.021227
    17   Atom       -0.067652      0.139247     -0.071595
    18   Atom       -0.014670      0.021447     -0.006778
    19   Atom       -0.015100      0.021076     -0.005976
 --------------------------------------------------------
                        XY            XZ            YZ
 --------------------------------------------------------
     1   Atom       -0.028627      0.034687      0.036967
     2   Atom       -0.004441      0.014223     -0.000402
     3   Atom        0.011060     -0.000153     -0.000501
     4   Atom       -0.011972     -0.000570      0.000843
     5   Atom        0.000435      0.005326      0.014087
     6   Atom        0.000683     -0.010949     -0.000471
     7   Atom       -0.000836      0.012106     -0.000621
     8   Atom       -0.011911     -0.000457      0.006638
     9   Atom        0.000150     -0.000435     -0.010737
    10   Atom        0.000404      0.000666      0.012223
    11   Atom       -0.004441      0.014223     -0.000402
    12   Atom        0.011060     -0.000153     -0.000501
    13   Atom       -0.011972     -0.000570      0.000843
    14   Atom        0.000435      0.005326      0.014087
    15   Atom        0.000683     -0.010949     -0.000471
    16   Atom       -0.000836      0.012106     -0.000621
    17   Atom       -0.011911     -0.000457      0.006638
    18   Atom        0.000150     -0.000435     -0.010737
    19   Atom        0.000404      0.000666      0.012223
 --------------------------------------------------------


 ---------------------------------------------------------------------------------
              Anisotropic Spin Dipole Couplings in Principal Axis System
 ---------------------------------------------------------------------------------

       Atom             a.u.   MegaHertz   Gauss  10(-4) cm-1        Axes

              Baa    -0.0670     3.198     1.141     1.067 -0.5572 -0.5727  0.6013
     1 Ni(61) Bbb     0.0283    -1.351    -0.482    -0.451  0.7589 -0.6451  0.0888
              Bcc     0.0387    -1.847    -0.659    -0.616  0.3370  0.5058  0.7941
 
              Baa    -0.0722     5.221     1.863     1.742  0.0190  0.9994  0.0289
     2 O(17)  Bbb    -0.0686     4.962     1.771     1.655 -0.0687 -0.0276  0.9973
              Bcc     0.1407   -10.183    -3.634    -3.397  0.9975 -0.0209  0.0681
 
              Baa    -0.0148    -7.887    -2.814    -2.631 -0.0246  0.0943  0.9952
     3 H(1)   Bbb    -0.0104    -5.553    -1.981    -1.852 -0.3278  0.9397 -0.0971
              Bcc     0.0252    13.440     4.796     4.483  0.9444  0.3287 -0.0078
 
              Baa    -0.0151    -8.080    -2.883    -2.695 -0.0272 -0.1300  0.9911
     4 H(1)   Bbb    -0.0106    -5.663    -2.021    -1.889  0.3507  0.9273  0.1313
              Bcc     0.0258    13.744     4.904     4.584  0.9361 -0.3511 -0.0203
 
              Baa    -0.0723     5.230     1.866     1.745  0.9995 -0.0223 -0.0236
     5 O(17)  Bbb    -0.0687     4.968     1.773     1.657  0.0207  0.9975 -0.0679
              Bcc     0.1409   -10.199    -3.639    -3.402  0.0251  0.0674  0.9974
 
              Baa    -0.0148    -7.877    -2.811    -2.627 -0.1126  0.9934 -0.0212
     6 H(1)   Bbb    -0.0104    -5.545    -1.979    -1.850  0.9388  0.1134  0.3252
              Bcc     0.0252    13.422     4.789     4.477 -0.3255 -0.0167  0.9454
 
              Baa    -0.0152    -8.107    -2.893    -2.704  0.1237  0.9920 -0.0242
     7 H(1)   Bbb    -0.0106    -5.677    -2.026    -1.894  0.9268 -0.1242 -0.3545
              Bcc     0.0258    13.784     4.918     4.598  0.3547 -0.0214  0.9347
 
              Baa    -0.0718     5.196     1.854     1.733  0.0236 -0.0301  0.9993
     8 O(17)  Bbb    -0.0683     4.945     1.764     1.649  0.9981  0.0580 -0.0218
              Bcc     0.1401   -10.140    -3.618    -3.382 -0.0573  0.9979  0.0314
 
              Baa    -0.0147    -7.845    -2.799    -2.617  0.9964  0.0203  0.0822
     9 H(1)   Bbb    -0.0104    -5.531    -1.974    -1.845 -0.0843  0.3190  0.9440
              Bcc     0.0251    13.376     4.773     4.462  0.0071  0.9475 -0.3196
 
              Baa    -0.0152    -8.089    -2.886    -2.698  0.9943  0.0240 -0.1040
    10 H(1)   Bbb    -0.0106    -5.672    -2.024    -1.892  0.1057 -0.3589  0.9274
              Bcc     0.0258    13.760     4.910     4.590  0.0151  0.9331  0.3594
 
              Baa    -0.0722     5.221     1.863     1.742  0.0190  0.9994  0.0289
    11 O(17)  Bbb    -0.0686     4.962     1.771     1.655 -0.0687 -0.0276  0.9973
              Bcc     0.1407   -10.183    -3.634    -3.397  0.9975 -0.0209  0.0681
 
              Baa    -0.0148    -7.887    -2.814    -2.631 -0.0246  0.0943  0.9952
    12 H(1)   Bbb    -0.0104    -5.553    -1.981    -1.852 -0.3278  0.9397 -0.0971
              Bcc     0.0252    13.440     4.796     4.483  0.9444  0.3287 -0.0078
 
              Baa    -0.0151    -8.080    -2.883    -2.695 -0.0272 -0.1300  0.9911
    13 H(1)   Bbb    -0.0106    -5.663    -2.021    -1.889  0.3507  0.9273  0.1313
              Bcc     0.0258    13.744     4.904     4.584  0.9361 -0.3511 -0.0203
 
              Baa    -0.0723     5.230     1.866     1.745  0.9995 -0.0223 -0.0236
    14 O(17)  Bbb    -0.0687     4.968     1.773     1.657  0.0207  0.9975 -0.0679
              Bcc     0.1409   -10.199    -3.639    -3.402  0.0251  0.0674  0.9974
 
              Baa    -0.0148    -7.877    -2.811    -2.627 -0.1126  0.9934 -0.0212
    15 H(1)   Bbb    -0.0104    -5.545    -1.979    -1.850  0.9388  0.1134  0.3252
              Bcc     0.0252    13.422     4.789     4.477 -0.3255 -0.0167  0.9454
 
              Baa    -0.0152    -8.107    -2.893    -2.704  0.1237  0.9920 -0.0242
    16 H(1)   Bbb    -0.0106    -5.677    -2.026    -1.894  0.9268 -0.1242 -0.3545
              Bcc     0.0258    13.784     4.918     4.598  0.3547 -0.0214  0.9347
 
              Baa    -0.0718     5.196     1.854     1.733  0.0236 -0.0301  0.9993
    17 O(17)  Bbb    -0.0683     4.945     1.764     1.649  0.9981  0.0580 -0.0218
              Bcc     0.1401   -10.140    -3.618    -3.382 -0.0573  0.9979  0.0314
 
              Baa    -0.0147    -7.845    -2.799    -2.617  0.9964  0.0203  0.0822
    18 H(1)   Bbb    -0.0104    -5.531    -1.974    -1.845 -0.0843  0.3190  0.9440
              Bcc     0.0251    13.376     4.773     4.462  0.0071  0.9475 -0.3196
 
              Baa    -0.0152    -8.089    -2.886    -2.698  0.9943  0.0240 -0.1040
    19 H(1)   Bbb    -0.0106    -5.672    -2.024    -1.892  0.1057 -0.3589  0.9274
              Bcc     0.0258    13.760     4.910     4.590  0.0151  0.9331  0.3594
 

 ---------------------------------------------------------------------------------

 1\1\GINC-MN42\FOpt\UM062X\6-311++G(2d,2p)\H12Ni1O6(2+,3)\DARAM_A\01-Se
 p-2015\0\\# opt=modredundant 6-311++g(2d,2p) geom=connectivity m062x o
 utput=wfnx\\Ni23_22\\2,3\Ni,0.,0.,0.\O,-2.1993042102,0.0170765319,-0.0
 526250046\H,-2.7832631396,-0.7468047133,0.0074243036\H,-2.7351130464,0
 .8127659225,0.038399927\O,0.0218641654,0.0453637787,2.1994235777\H,-0.
 7371220669,-0.0301871048,2.7878827094\H,0.822270374,-0.0431284563,2.72
 8675622\O,-0.0449041307,2.1992846159,0.033627289\H,0.0071002295,2.7953
 977707,-0.7213229497\H,0.027688775,2.7251906838,0.8378304773\O,2.19930
 42102,-0.0170765319,0.0526250046\H,2.7832631396,0.7468047133,-0.007424
 3036\H,2.7351130464,-0.8127659225,-0.038399927\O,-0.0218641654,-0.0453
 637787,-2.1994235777\H,0.7371220669,0.0301871048,-2.7878827094\H,-0.82
 2270374,0.0431284563,-2.728675622\O,0.0449041307,-2.1992846159,-0.0336
 27289\H,-0.0071002295,-2.7953977707,0.7213229497\H,-0.027688775,-2.725
 1906838,-0.8378304773\\Version=ES64L-G09RevD.01\State=3-AG\HF=-1966.34
 42601\S2=2.003829\S2-1=0.\S2A=2.000009\RMSD=2.610e-09\RMSF=5.610e-03\D
 ipole=0.,0.,0.\Quadrupole=-0.0094399,0.0401653,-0.0307254,0.4814549,-0
 .5555785,-0.5776664\PG=CI [O(Ni1),X(H12O6)]\\@

 Writing a WFNX file to "Ni23_22.wfx"


 "ANNA, YOU MUSN'T SPEAK OF OXIDIZED MURIATIC ACID
 ANYMORE, FROM NOW ON YOU MUST SAY CHLORINE."
   -- JENS JACOB BERZELIUS, IN 1820, TO HIS COOK, WHO HAD
 COMPLAINED OF THE SMELL OF THE FLASK SHE WAS CLEANING.
 Job cpu time:       0 days  3 hours 50 minutes 42.4 seconds.
 File lengths (MBytes):  RWF=     95 Int=      0 D2E=      0 Chk=     12 Scr=      1
 Normal termination of Gaussian 09 at Tue Sep  1 14:49:30 2015.
