 Entering Gaussian System, Link 0=g09
 Input=Ni23_26.com
 Output=Ni23_26.log
 Initial command:
 /opt/SC/aplicaciones/g09-D.01/l1.exe "/tmpu/fercor_g/daram_a/Gau-52095.inp" -scrdir="/tmpu/fercor_g/daram_a/"
 Entering Link 1 = /opt/SC/aplicaciones/g09-D.01/l1.exe PID=     52096.
  
 Copyright (c) 1988,1990,1992,1993,1995,1998,2003,2009,2013,
            Gaussian, Inc.  All Rights Reserved.
  
 This is part of the Gaussian(R) 09 program.  It is based on
 the Gaussian(R) 03 system (copyright 2003, Gaussian, Inc.),
 the Gaussian(R) 98 system (copyright 1998, Gaussian, Inc.),
 the Gaussian(R) 94 system (copyright 1995, Gaussian, Inc.),
 the Gaussian 92(TM) system (copyright 1992, Gaussian, Inc.),
 the Gaussian 90(TM) system (copyright 1990, Gaussian, Inc.),
 the Gaussian 88(TM) system (copyright 1988, Gaussian, Inc.),
 the Gaussian 86(TM) system (copyright 1986, Carnegie Mellon
 University), and the Gaussian 82(TM) system (copyright 1983,
 Carnegie Mellon University). Gaussian is a federally registered
 trademark of Gaussian, Inc.
  
 This software contains proprietary and confidential information,
 including trade secrets, belonging to Gaussian, Inc.
  
 This software is provided under written license and may be
 used, copied, transmitted, or stored only in accord with that
 written license.
  
 The following legend is applicable only to US Government
 contracts under FAR:
  
                    RESTRICTED RIGHTS LEGEND
  
 Use, reproduction and disclosure by the US Government is
 subject to restrictions as set forth in subparagraphs (a)
 and (c) of the Commercial Computer Software - Restricted
 Rights clause in FAR 52.227-19.
  
 Gaussian, Inc.
 340 Quinnipiac St., Bldg. 40, Wallingford CT 06492
  
  
 ---------------------------------------------------------------
 Warning -- This program may not be used in any manner that
 competes with the business of Gaussian, Inc. or will provide
 assistance to any competitor of Gaussian, Inc.  The licensee
 of this program is prohibited from giving any competitor of
 Gaussian, Inc. access to this program.  By using this program,
 the user acknowledges that Gaussian, Inc. is engaged in the
 business of creating and licensing software in the field of
 computational chemistry and represents and warrants to the
 licensee that it is not a competitor of Gaussian, Inc. and that
 it will not use this program in any manner prohibited above.
 ---------------------------------------------------------------
  

 Cite this work as:
 Gaussian 09, Revision D.01,
 M. J. Frisch, G. W. Trucks, H. B. Schlegel, G. E. Scuseria, 
 M. A. Robb, J. R. Cheeseman, G. Scalmani, V. Barone, B. Mennucci, 
 G. A. Petersson, H. Nakatsuji, M. Caricato, X. Li, H. P. Hratchian, 
 A. F. Izmaylov, J. Bloino, G. Zheng, J. L. Sonnenberg, M. Hada, 
 M. Ehara, K. Toyota, R. Fukuda, J. Hasegawa, M. Ishida, T. Nakajima, 
 Y. Honda, O. Kitao, H. Nakai, T. Vreven, J. A. Montgomery, Jr., 
 J. E. Peralta, F. Ogliaro, M. Bearpark, J. J. Heyd, E. Brothers, 
 K. N. Kudin, V. N. Staroverov, T. Keith, R. Kobayashi, J. Normand, 
 K. Raghavachari, A. Rendell, J. C. Burant, S. S. Iyengar, J. Tomasi, 
 M. Cossi, N. Rega, J. M. Millam, M. Klene, J. E. Knox, J. B. Cross, 
 V. Bakken, C. Adamo, J. Jaramillo, R. Gomperts, R. E. Stratmann, 
 O. Yazyev, A. J. Austin, R. Cammi, C. Pomelli, J. W. Ochterski, 
 R. L. Martin, K. Morokuma, V. G. Zakrzewski, G. A. Voth, 
 P. Salvador, J. J. Dannenberg, S. Dapprich, A. D. Daniels, 
 O. Farkas, J. B. Foresman, J. V. Ortiz, J. Cioslowski, 
 and D. J. Fox, Gaussian, Inc., Wallingford CT, 2013.
 
 ******************************************
 Gaussian 09:  ES64L-G09RevD.01 24-Apr-2013
                 1-Sep-2015 
 ******************************************
 %nprocshared=16
 Will use up to   16 processors via shared memory.
 %mem=32GB
 %chk=Ni23_26.chk
 ----------------------------------------------------------------------
 # opt=modredundant 6-311++g(2d,2p) geom=connectivity m062x output=wfnx
 ----------------------------------------------------------------------
 1/14=-1,18=120,19=15,26=3,38=1,57=2/1,3;
 2/9=110,12=2,17=6,18=5,40=1/2;
 3/5=4,6=6,7=1212,11=2,16=1,25=1,30=1,71=1,74=-55/1,2,3;
 4//1;
 5/5=2,38=5/2;
 6/7=2,8=2,9=2,10=2,28=1/1;
 7//1,2,3,16;
 1/14=-1,18=20,19=15,26=3/3(2);
 2/9=110/2;
 99/6=200/99;
 2/9=110/2;
 3/5=4,6=6,7=1212,11=2,16=1,25=1,30=1,71=1,74=-55/1,2,3;
 4/5=5,16=3,69=1/1;
 5/5=2,38=5/2;
 7//1,2,3,16;
 1/14=-1,18=20,19=15,26=3/3(-5);
 2/9=110/2;
 6/7=2,8=2,9=2,10=2,19=2,28=1/1;
 99/6=200,9=1/99;
 -------
 Ni23_26
 -------
 Symbolic Z-matrix:
 Charge =  2 Multiplicity = 3
 Ni                    0.        0.        0. 
 O                    -2.59991   0.01579   0.01416 
 H                    -3.17258  -0.75943   0.01128 
 H                    -3.16035   0.79948   0.04107 
 O                     0.02103  -0.02207   2.59982 
 H                    -0.75273  -0.03655   3.17426 
 H                     0.80635  -0.0477    3.15805 
 O                     0.01048   2.59976   0.03388 
 H                     0.01045   3.18015  -0.73552 
 H                     0.02869   3.15237   0.8234 
 O                     2.59991  -0.01579  -0.01416 
 H                     3.17258   0.75943  -0.01128 
 H                     3.16035  -0.79948  -0.04107 
 O                    -0.02103   0.02207  -2.59982 
 H                     0.75273   0.03655  -3.17426 
 H                    -0.80635   0.0477   -3.15805 
 O                    -0.01048  -2.59976  -0.03388 
 H                    -0.01045  -3.18015   0.73552 
 H                    -0.02869  -3.15237  -0.8234 
 
 Add virtual bond connecting atoms O5         and Ni1        Dist= 4.91D+00.
 Add virtual bond connecting atoms O14        and Ni1        Dist= 4.91D+00.
 Add virtual bond connecting atoms O8         and Ni1        Dist= 4.91D+00.
 Add virtual bond connecting atoms O17        and Ni1        Dist= 4.91D+00.
 Add virtual bond connecting atoms O2         and Ni1        Dist= 4.91D+00.
 Add virtual bond connecting atoms O11        and Ni1        Dist= 4.91D+00.
 The following ModRedundant input section has been read:
 B       1       8 F                                                           
 B       1      14 F                                                           
 B       1      11 F                                                           
 B       1       2 F                                                           
 B       1       5 F                                                           
 B       1      17 F                                                           
 

 GradGradGradGradGradGradGradGradGradGradGradGradGradGradGradGradGradGrad
 Berny optimization.
 Initialization pass.
                           ----------------------------
                           !    Initial Parameters    !
                           ! (Angstroms and Degrees)  !
 --------------------------                            --------------------------
 ! Name  Definition              Value          Derivative Info.                !
 --------------------------------------------------------------------------------
 ! R1    R(1,2)                  2.6            Frozen                          !
 ! R2    R(1,5)                  2.6            Frozen                          !
 ! R3    R(1,8)                  2.6            Frozen                          !
 ! R4    R(1,11)                 2.6            Frozen                          !
 ! R5    R(1,14)                 2.6            Frozen                          !
 ! R6    R(1,17)                 2.6            Frozen                          !
 ! R7    R(2,3)                  0.9638         estimate D2E/DX2                !
 ! R8    R(2,4)                  0.9638         estimate D2E/DX2                !
 ! R9    R(5,6)                  0.9638         estimate D2E/DX2                !
 ! R10   R(5,7)                  0.9639         estimate D2E/DX2                !
 ! R11   R(8,9)                  0.9638         estimate D2E/DX2                !
 ! R12   R(8,10)                 0.9639         estimate D2E/DX2                !
 ! R13   R(11,12)                0.9638         estimate D2E/DX2                !
 ! R14   R(11,13)                0.9638         estimate D2E/DX2                !
 ! R15   R(14,15)                0.9638         estimate D2E/DX2                !
 ! R16   R(14,16)                0.9639         estimate D2E/DX2                !
 ! R17   R(17,18)                0.9638         estimate D2E/DX2                !
 ! R18   R(17,19)                0.9639         estimate D2E/DX2                !
 ! A1    A(2,1,5)               90.1543         estimate D2E/DX2                !
 ! A2    A(2,1,8)               89.879          estimate D2E/DX2                !
 ! A3    A(2,1,14)              89.8457         estimate D2E/DX2                !
 ! A4    A(2,1,17)              90.121          estimate D2E/DX2                !
 ! A5    A(5,1,8)               89.7379         estimate D2E/DX2                !
 ! A6    A(5,1,11)              89.8457         estimate D2E/DX2                !
 ! A7    A(5,1,17)              90.2621         estimate D2E/DX2                !
 ! A8    A(8,1,11)              90.121          estimate D2E/DX2                !
 ! A9    A(8,1,14)              90.2621         estimate D2E/DX2                !
 ! A10   A(11,1,14)             90.1543         estimate D2E/DX2                !
 ! A11   A(11,1,17)             89.879          estimate D2E/DX2                !
 ! A12   A(14,1,17)             89.7379         estimate D2E/DX2                !
 ! A13   A(1,2,3)              126.1044         estimate D2E/DX2                !
 ! A14   A(1,2,4)              125.9115         estimate D2E/DX2                !
 ! A15   A(3,2,4)              107.9738         estimate D2E/DX2                !
 ! A16   A(1,5,6)              126.1297         estimate D2E/DX2                !
 ! A17   A(1,5,7)              125.8691         estimate D2E/DX2                !
 ! A18   A(6,5,7)              107.9711         estimate D2E/DX2                !
 ! A19   A(1,8,9)              126.2818         estimate D2E/DX2                !
 ! A20   A(1,8,10)             125.734          estimate D2E/DX2                !
 ! A21   A(9,8,10)             107.9782         estimate D2E/DX2                !
 ! A22   A(1,11,12)            126.1044         estimate D2E/DX2                !
 ! A23   A(1,11,13)            125.9115         estimate D2E/DX2                !
 ! A24   A(12,11,13)           107.9738         estimate D2E/DX2                !
 ! A25   A(1,14,15)            126.1297         estimate D2E/DX2                !
 ! A26   A(1,14,16)            125.8691         estimate D2E/DX2                !
 ! A27   A(15,14,16)           107.9711         estimate D2E/DX2                !
 ! A28   A(1,17,18)            126.2818         estimate D2E/DX2                !
 ! A29   A(1,17,19)            125.734          estimate D2E/DX2                !
 ! A30   A(18,17,19)           107.9782         estimate D2E/DX2                !
 ! A31   L(2,1,11,5,-1)        180.0            estimate D2E/DX2                !
 ! A32   L(5,1,14,2,-1)        180.0            estimate D2E/DX2                !
 ! A33   L(8,1,17,2,-1)        180.0            estimate D2E/DX2                !
 ! A34   L(2,1,11,5,-2)        180.0            estimate D2E/DX2                !
 ! A35   L(5,1,14,2,-2)        180.0            estimate D2E/DX2                !
 ! A36   L(8,1,17,2,-2)        180.0            estimate D2E/DX2                !
 ! D1    D(5,1,2,3)            -89.9559         estimate D2E/DX2                !
 ! D2    D(5,1,2,4)             88.7341         estimate D2E/DX2                !
 ! D3    D(8,1,2,3)           -179.6935         estimate D2E/DX2                !
 ! D4    D(8,1,2,4)             -1.0035         estimate D2E/DX2                !
 ! D5    D(14,1,2,3)            90.0441         estimate D2E/DX2                !
 ! D6    D(14,1,2,4)           -91.2659         estimate D2E/DX2                !
 ! D7    D(17,1,2,3)             0.3065         estimate D2E/DX2                !
 ! D8    D(17,1,2,4)           178.9965         estimate D2E/DX2                !
 ! D9    D(3,2,11,12)          180.0            estimate D2E/DX2                !
 ! D10   D(3,2,11,13)            1.31           estimate D2E/DX2                !
 ! D11   D(4,2,11,12)           -1.31           estimate D2E/DX2                !
 ! D12   D(4,2,11,13)          180.0            estimate D2E/DX2                !
 ! D13   D(2,1,5,6)              1.0568         estimate D2E/DX2                !
 ! D14   D(2,1,5,7)            178.8179         estimate D2E/DX2                !
 ! D15   D(8,1,5,6)             90.9351         estimate D2E/DX2                !
 ! D16   D(8,1,5,7)            -91.3038         estimate D2E/DX2                !
 ! D17   D(11,1,5,6)          -178.9432         estimate D2E/DX2                !
 ! D18   D(11,1,5,7)            -1.1821         estimate D2E/DX2                !
 ! D19   D(17,1,5,6)           -89.0649         estimate D2E/DX2                !
 ! D20   D(17,1,5,7)            88.6962         estimate D2E/DX2                !
 ! D21   D(6,5,14,15)          180.0            estimate D2E/DX2                !
 ! D22   D(6,5,14,16)            2.2388         estimate D2E/DX2                !
 ! D23   D(7,5,14,15)           -2.2388         estimate D2E/DX2                !
 ! D24   D(7,5,14,16)          180.0            estimate D2E/DX2                !
 ! D25   D(2,1,8,9)            -90.1358         estimate D2E/DX2                !
 ! D26   D(2,1,8,10)            90.8598         estimate D2E/DX2                !
 ! D27   D(5,1,8,9)            179.7093         estimate D2E/DX2                !
 ! D28   D(5,1,8,10)             0.7049         estimate D2E/DX2                !
 ! D29   D(11,1,8,9)            89.8642         estimate D2E/DX2                !
 ! D30   D(11,1,8,10)          -89.1402         estimate D2E/DX2                !
 ! D31   D(14,1,8,9)            -0.2907         estimate D2E/DX2                !
 ! D32   D(14,1,8,10)         -179.2951         estimate D2E/DX2                !
 ! D33   D(9,8,17,18)          180.0            estimate D2E/DX2                !
 ! D34   D(9,8,17,19)           -0.9956         estimate D2E/DX2                !
 ! D35   D(10,8,17,18)           0.9956         estimate D2E/DX2                !
 ! D36   D(10,8,17,19)         180.0            estimate D2E/DX2                !
 ! D37   D(5,1,11,12)          -90.0441         estimate D2E/DX2                !
 ! D38   D(5,1,11,13)           91.2659         estimate D2E/DX2                !
 ! D39   D(8,1,11,12)           -0.3065         estimate D2E/DX2                !
 ! D40   D(8,1,11,13)         -178.9965         estimate D2E/DX2                !
 ! D41   D(14,1,11,12)          89.9559         estimate D2E/DX2                !
 ! D42   D(14,1,11,13)         -88.7341         estimate D2E/DX2                !
 ! D43   D(17,1,11,12)         179.6935         estimate D2E/DX2                !
 ! D44   D(17,1,11,13)           1.0035         estimate D2E/DX2                !
 ! D45   D(2,1,14,15)          178.9432         estimate D2E/DX2                !
 ! D46   D(2,1,14,16)            1.1821         estimate D2E/DX2                !
 ! D47   D(8,1,14,15)           89.0649         estimate D2E/DX2                !
 ! D48   D(8,1,14,16)          -88.6962         estimate D2E/DX2                !
 ! D49   D(11,1,14,15)          -1.0568         estimate D2E/DX2                !
 ! D50   D(11,1,14,16)        -178.8179         estimate D2E/DX2                !
 ! D51   D(17,1,14,15)         -90.9351         estimate D2E/DX2                !
 ! D52   D(17,1,14,16)          91.3038         estimate D2E/DX2                !
 ! D53   D(2,1,17,18)          -89.8642         estimate D2E/DX2                !
 ! D54   D(2,1,17,19)           89.1402         estimate D2E/DX2                !
 ! D55   D(5,1,17,18)            0.2907         estimate D2E/DX2                !
 ! D56   D(5,1,17,19)          179.2951         estimate D2E/DX2                !
 ! D57   D(11,1,17,18)          90.1358         estimate D2E/DX2                !
 ! D58   D(11,1,17,19)         -90.8598         estimate D2E/DX2                !
 ! D59   D(14,1,17,18)        -179.7093         estimate D2E/DX2                !
 ! D60   D(14,1,17,19)          -0.7049         estimate D2E/DX2                !
 --------------------------------------------------------------------------------
 Trust Radius=3.00D-01 FncErr=1.00D-07 GrdErr=1.00D-06
 Number of steps in this run=    114 maximum allowed number of steps=    114.
 GradGradGradGradGradGradGradGradGradGradGradGradGradGradGradGradGradGrad

                          Input orientation:                          
 ---------------------------------------------------------------------
 Center     Atomic      Atomic             Coordinates (Angstroms)
 Number     Number       Type             X           Y           Z
 ---------------------------------------------------------------------
      1         28           0        0.000000    0.000000    0.000000
      2          8           0       -2.599914    0.015785    0.014158
      3          1           0       -3.172585   -0.759430    0.011277
      4          1           0       -3.160355    0.799477    0.041069
      5          8           0        0.021026   -0.022074    2.599821
      6          1           0       -0.752733   -0.036547    3.174261
      7          1           0        0.806354   -0.047704    3.158046
      8          8           0        0.010478    2.599758    0.033882
      9          1           0        0.010449    3.180153   -0.735521
     10          1           0        0.028685    3.152373    0.823402
     11          8           0        2.599914   -0.015785   -0.014158
     12          1           0        3.172585    0.759430   -0.011277
     13          1           0        3.160355   -0.799477   -0.041069
     14          8           0       -0.021026    0.022074   -2.599821
     15          1           0        0.752733    0.036547   -3.174261
     16          1           0       -0.806354    0.047704   -3.158046
     17          8           0       -0.010478   -2.599758   -0.033882
     18          1           0       -0.010449   -3.180153    0.735521
     19          1           0       -0.028685   -3.152373   -0.823402
 ---------------------------------------------------------------------
                    Distance matrix (angstroms):
                    1          2          3          4          5
     1  Ni   0.000000
     2  O    2.600000   0.000000
     3  H    3.262231   0.963804   0.000000
     4  H    3.260167   0.963842   1.559240   0.000000
     5  O    2.600000   3.681904   4.176531   4.164534   0.000000
     6  H    3.262496   3.660747   4.047557   4.038870   0.963791
     7  H    3.259715   4.635809   5.122564   5.115471   0.963853
     8  O    2.600000   3.673071   4.627801   3.646265   3.668536
     9  H    3.264119   4.170040   5.119543   4.040385   4.623729
    10  H    3.258262   4.171642   5.119559   4.039572   3.637696
    11  O    2.600000   5.200000   5.820257   5.817937   3.672000
    12  H    3.262231   5.820257   6.524463   6.333282   4.166641
    13  H    3.260167   5.817937   6.333282   6.520335   4.175409
    14  O    2.600000   3.672000   4.166641   4.175409   5.200000
    15  H    3.262496   4.626736   5.117553   5.121783   5.820555
    16  H    3.259715   3.644277   4.036721   4.042378   5.817428
    17  O    2.600000   3.680835   3.658929   4.634883   3.685356
    18  H    3.264119   4.176088   4.047657   5.122658   3.667434
    19  H    3.258262   4.165327   4.038189   5.115836   4.638934
                    6          7          8          9         10
     6  H    0.000000
     7  H    1.559211   0.000000
     8  O    4.170680   4.171675   0.000000
     9  H    5.120156   5.119803   0.963763   0.000000
    10  H    4.038113   4.036808   0.963876   1.559277   0.000000
    11  O    4.626736   3.644277   3.680835   4.176088   4.165327
    12  H    5.117553   4.036721   3.658929   4.047657   4.038189
    13  H    5.121783   4.042378   4.634883   5.122658   5.115836
    14  O    5.820555   5.817428   3.685356   3.667434   4.638934
    15  H    6.524991   6.333095   4.172910   4.047308   5.119955
    16  H    6.333095   6.519429   4.167566   4.043271   5.117441
    17  O    4.172910   4.167566   5.200000   5.822380   5.815796
    18  H    4.047308   4.043271   5.822380   6.528238   6.333257
    19  H    5.119955   5.117441   5.815796   6.333257   6.516524
                   11         12         13         14         15
    11  O    0.000000
    12  H    0.963804   0.000000
    13  H    0.963842   1.559240   0.000000
    14  O    3.681904   4.176531   4.164534   0.000000
    15  H    3.660747   4.047557   4.038870   0.963791   0.000000
    16  H    4.635809   5.122564   5.115471   0.963853   1.559211
    17  O    3.673071   4.627801   3.646265   3.668536   4.170680
    18  H    4.170040   5.119543   4.040385   4.623729   5.120156
    19  H    4.171642   5.119559   4.039572   3.637696   4.038113
                   16         17         18         19
    16  H    0.000000
    17  O    4.171675   0.000000
    18  H    5.119803   0.963763   0.000000
    19  H    4.036808   0.963876   1.559277   0.000000
 Stoichiometry    H12NiO6(2+,3)
 Framework group  CI[O(Ni),X(H12O6)]
 Deg. of freedom    24
 Full point group                 CI      NOp   2
 Largest Abelian subgroup         CI      NOp   2
 Largest concise Abelian subgroup CI      NOp   2
                         Standard orientation:                         
 ---------------------------------------------------------------------
 Center     Atomic      Atomic             Coordinates (Angstroms)
 Number     Number       Type             X           Y           Z
 ---------------------------------------------------------------------
      1         28           0        0.000000    0.000000    0.000000
      2          8           0       -2.599914    0.015785    0.014158
      3          1           0       -3.172585   -0.759430    0.011277
      4          1           0       -3.160355    0.799477    0.041069
      5          8           0        0.021026   -0.022074    2.599821
      6          1           0       -0.752733   -0.036547    3.174261
      7          1           0        0.806354   -0.047704    3.158046
      8          8           0        0.010478    2.599758    0.033882
      9          1           0        0.010449    3.180153   -0.735521
     10          1           0        0.028685    3.152373    0.823402
     11          8           0        2.599914   -0.015785   -0.014158
     12          1           0        3.172585    0.759430   -0.011277
     13          1           0        3.160355   -0.799477   -0.041069
     14          8           0       -0.021026    0.022074   -2.599821
     15          1           0        0.752733    0.036547   -3.174261
     16          1           0       -0.806354    0.047704   -3.158046
     17          8           0       -0.010478   -2.599758   -0.033882
     18          1           0       -0.010449   -3.180153    0.735521
     19          1           0       -0.028685   -3.152373   -0.823402
 ---------------------------------------------------------------------
 Rotational constants (GHZ):      0.9771046      0.9758972      0.9725041
 Standard basis: 6-311++G(2d,2p) (5D, 7F)
 There are   181 symmetry adapted cartesian basis functions of AG  symmetry.
 There are   188 symmetry adapted cartesian basis functions of AU  symmetry.
 There are   171 symmetry adapted basis functions of AG  symmetry.
 There are   176 symmetry adapted basis functions of AU  symmetry.
   347 basis functions,   500 primitive gaussians,   369 cartesian basis functions
    44 alpha electrons       42 beta electrons
       nuclear repulsion energy       577.4570489780 Hartrees.
 NAtoms=   19 NActive=   19 NUniq=   10 SFac= 3.61D+00 NAtFMM=   60 NAOKFM=F Big=F
 Integral buffers will be    131072 words long.
 Raffenetti 2 integral format.
 Two-electron integral symmetry is turned on.
 One-electron integrals computed using PRISM.
 NBasis=   347 RedAO= T EigKep=  2.28D-04  NBF=   171   176
 NBsUse=   347 1.00D-06 EigRej= -1.00D+00 NBFU=   171   176
 ExpMin= 1.39D-02 ExpMax= 2.85D+05 ExpMxC= 9.63D+03 IAcc=3 IRadAn=         5 AccDes= 0.00D+00
 Harris functional with IExCor= 1009 and IRadAn=       5 diagonalized for initial guess.
 HarFok:  IExCor= 1009 AccDes= 0.00D+00 IRadAn=         5 IDoV= 1 UseB2=F ITyADJ=14
 ICtDFT=  3500011 ScaDFX=  1.000000  1.000000  1.000000  1.000000
 FoFCou: FMM=F IPFlag=           0 FMFlag=      100000 FMFlg1=           0
         NFxFlg=           0 DoJE=T BraDBF=F KetDBF=T FulRan=T
         wScrn=  0.000000 ICntrl=     500 IOpCl=  0 I1Cent=   200000004 NGrid=           0
         NMat0=    1 NMatS0=      1 NMatT0=    0 NMatD0=    1 NMtDS0=    0 NMtDT0=    0
 Petite list used in FoFCou.
 Initial guess orbital symmetries:
 Alpha Orbitals:
       Occupied  (AG) (AG) (AU) (AU) (AU) (AG) (AU) (AU) (AU) (AG)
                 (AG) (AG) (AU) (AU) (AU) (AG) (AU) (AU) (AU) (AG)
                 (AG) (AU) (AG) (AG) (AU) (AU) (AG) (AG) (AU) (AU)
                 (AU) (AG) (AG) (AG) (AG) (AG) (AU) (AU) (AU) (AG)
                 (AG) (AG) (AG) (AG)
       Virtual   (AG) (AU) (AU) (AU) (AG) (AG) (AG) (AG) (AG) (AG)
                 (AU) (AU) (AU) (AU) (AU) (AU) (AG) (AG) (AG) (AG)
                 (AG) (AG) (AU) (AU) (AU) (AU) (AU) (AU) (AU) (AU)
                 (AG) (AU) (AG) (AG) (AG) (AG) (AG) (AG) (AU) (AU)
                 (AU) (AG) (AG) (AG) (AU) (AU) (AU) (AG) (AG) (AG)
                 (AU) (AU) (AU) (AU) (AU) (AU) (AG) (AG) (AG) (AG)
                 (AG) (AG) (AG) (AG) (AG) (AU) (AU) (AU) (AG) (AG)
                 (AU) (AU) (AU) (AU) (AU) (AU) (AG) (AG) (AG) (AG)
                 (AU) (AU) (AU) (AG) (AG) (AG) (AG) (AG) (AG) (AU)
                 (AU) (AU) (AG) (AG) (AG) (AU) (AU) (AU) (AU) (AU)
                 (AU) (AU) (AU) (AU) (AG) (AG) (AG) (AU) (AU) (AU)
                 (AG) (AG) (AG) (AG) (AG) (AG) (AU) (AU) (AU) (AG)
                 (AG) (AG) (AG) (AG) (AG) (AU) (AU) (AU) (AU) (AU)
                 (AU) (AG) (AG) (AG) (AG) (AG) (AG) (AU) (AU) (AU)
                 (AG) (AG) (AG) (AU) (AU) (AU) (AG) (AG) (AG) (AG)
                 (AU) (AU) (AU) (AG) (AG) (AU) (AU) (AU) (AG) (AG)
                 (AU) (AU) (AU) (AU) (AU) (AU) (AU) (AG) (AU) (AU)
                 (AU) (AG) (AG) (AG) (AG) (AG) (AU) (AU) (AU) (AU)
                 (AU) (AU) (AG) (AG) (AG) (AG) (AG) (AG) (AU) (AU)
                 (AU) (AG) (AU) (AU) (AU) (AG) (AG) (AG) (AU) (AU)
                 (AU) (AG) (AG) (AG) (AU) (AU) (AU) (AG) (AG) (AG)
                 (AG) (AG) (AG) (AU) (AU) (AU) (AU) (AU) (AU) (AG)
                 (AG) (AG) (AG) (AG) (AU) (AU) (AU) (AG) (AU) (AU)
                 (AU) (AG) (AG) (AG) (AU) (AU) (AU) (AG) (AG) (AG)
                 (AG) (AG) (AG) (AU) (AU) (AU) (AG) (AG) (AG) (AU)
                 (AU) (AU) (AG) (AG) (AG) (AU) (AU) (AU) (AG) (AU)
                 (AU) (AU) (AG) (AG) (AG) (AG) (AG) (AG) (AG) (AU)
                 (AU) (AU) (AG) (AG) (AG) (AU) (AU) (AU) (AU) (AU)
                 (AU) (AU) (AG) (AG) (AG) (AU) (AU) (AU) (AU) (AU)
                 (AU) (AG) (AU) (AU) (AU) (AG) (AG) (AU) (AU) (AU)
                 (AG) (AG) (AG)
 Beta  Orbitals:
       Occupied  (AG) (AG) (AU) (AU) (AU) (AG) (AU) (AU) (AU) (AG)
                 (AG) (AG) (AU) (AU) (AU) (AG) (AU) (AU) (AU) (AG)
                 (AG) (AU) (AG) (AG) (AU) (AU) (AG) (AG) (AU) (AU)
                 (AU) (AG) (AG) (AG) (AG) (AG) (AU) (AU) (AU) (AG)
                 (AG) (AG)
       Virtual   (AG) (AG) (AG) (AU) (AU) (AU) (AG) (AG) (AG) (AG)
                 (AG) (AG) (AU) (AU) (AU) (AU) (AU) (AU) (AG) (AG)
                 (AG) (AG) (AG) (AG) (AU) (AU) (AU) (AU) (AU) (AU)
                 (AU) (AU) (AG) (AU) (AG) (AG) (AG) (AG) (AG) (AG)
                 (AU) (AU) (AU) (AG) (AG) (AG) (AU) (AU) (AU) (AG)
                 (AG) (AG) (AU) (AU) (AU) (AU) (AU) (AU) (AG) (AG)
                 (AG) (AG) (AG) (AG) (AG) (AG) (AG) (AU) (AU) (AU)
                 (AG) (AG) (AU) (AU) (AU) (AU) (AU) (AU) (AG) (AG)
                 (AG) (AG) (AU) (AU) (AU) (AG) (AG) (AG) (AG) (AG)
                 (AG) (AU) (AU) (AU) (AG) (AG) (AG) (AU) (AU) (AU)
                 (AU) (AU) (AU) (AU) (AU) (AU) (AG) (AG) (AG) (AU)
                 (AU) (AU) (AG) (AG) (AG) (AG) (AG) (AG) (AU) (AU)
                 (AU) (AG) (AG) (AG) (AG) (AG) (AG) (AU) (AU) (AU)
                 (AU) (AU) (AU) (AG) (AG) (AG) (AG) (AG) (AG) (AU)
                 (AU) (AU) (AG) (AG) (AG) (AU) (AU) (AU) (AG) (AG)
                 (AG) (AG) (AU) (AU) (AU) (AG) (AG) (AU) (AU) (AU)
                 (AG) (AG) (AU) (AU) (AU) (AU) (AU) (AU) (AU) (AG)
                 (AU) (AU) (AU) (AG) (AG) (AG) (AG) (AG) (AU) (AU)
                 (AU) (AU) (AU) (AU) (AG) (AG) (AG) (AG) (AG) (AG)
                 (AU) (AU) (AU) (AG) (AU) (AU) (AU) (AG) (AG) (AG)
                 (AU) (AU) (AU) (AG) (AG) (AG) (AU) (AU) (AU) (AG)
                 (AG) (AG) (AG) (AG) (AG) (AU) (AU) (AU) (AU) (AU)
                 (AU) (AG) (AG) (AG) (AG) (AG) (AU) (AU) (AU) (AG)
                 (AU) (AU) (AU) (AG) (AG) (AG) (AU) (AU) (AU) (AG)
                 (AG) (AG) (AG) (AG) (AG) (AU) (AU) (AU) (AG) (AG)
                 (AG) (AU) (AU) (AU) (AG) (AG) (AG) (AU) (AU) (AU)
                 (AG) (AU) (AU) (AU) (AG) (AG) (AG) (AG) (AG) (AG)
                 (AG) (AU) (AU) (AU) (AG) (AG) (AG) (AU) (AU) (AU)
                 (AU) (AU) (AU) (AU) (AG) (AG) (AG) (AU) (AU) (AU)
                 (AU) (AU) (AU) (AG) (AU) (AU) (AU) (AG) (AG) (AU)
                 (AU) (AU) (AG) (AG) (AG)
 The electronic state of the initial guess is 3-AG.
 Initial guess <Sx>= 0.0000 <Sy>= 0.0000 <Sz>= 1.0000 <S**2>= 2.0000 S= 1.0000
 Keep R1 and R2 ints in memory in symmetry-blocked form, NReq=2734803760.
 Requested convergence on RMS density matrix=1.00D-08 within 128 cycles.
 Requested convergence on MAX density matrix=1.00D-06.
 Requested convergence on             energy=1.00D-06.
 No special actions if energy rises.
 SCF Done:  E(UM062X) =  -1966.22507133     A.U. after   21 cycles
            NFock= 21  Conv=0.14D-08     -V/T= 2.0019
 <Sx>= 0.0000 <Sy>= 0.0000 <Sz>= 1.0000 <S**2>= 2.0038 S= 1.0013
 <L.S>= 0.000000000000E+00
 Annihilation of the first spin contaminant:
 S**2 before annihilation     2.0038,   after     2.0000

 **********************************************************************

            Population analysis using the SCF density.

 **********************************************************************

 Orbital symmetries:
 Alpha Orbitals:
       Occupied  (AG) (AG) (AU) (AU) (AU) (AU) (AG) (AU) (AG) (AU)
                 (AG) (AG) (AU) (AU) (AU) (AG) (AU) (AU) (AU) (AG)
                 (AG) (AG) (AG) (AG) (AG) (AG) (AU) (AU) (AU) (AG)
                 (AG) (AG) (AG) (AU) (AU) (AU) (AG) (AG) (AU) (AU)
                 (AU) (AG) (AG) (AG)
       Virtual   (AG) (AU) (AU) (AU) (AG) (AG) (AG) (AG) (AG) (AG)
                 (AU) (AU) (AU) (AU) (AU) (AU) (AG) (AG) (AG) (AG)
                 (AU) (AG) (AG) (AU) (AU) (AU) (AU) (AU) (AG) (AU)
                 (AU) (AU) (AG) (AG) (AG) (AG) (AG) (AU) (AU) (AU)
                 (AG) (AG) (AG) (AG) (AU) (AU) (AU) (AG) (AG) (AG)
                 (AU) (AU) (AU) (AU) (AU) (AU) (AG) (AG) (AG) (AG)
                 (AG) (AG) (AG) (AG) (AG) (AU) (AU) (AU) (AG) (AG)
                 (AU) (AU) (AU) (AU) (AU) (AU) (AG) (AG) (AG) (AG)
                 (AU) (AU) (AU) (AG) (AG) (AG) (AG) (AG) (AG) (AU)
                 (AU) (AU) (AG) (AG) (AU) (AG) (AU) (AU) (AU) (AU)
                 (AU) (AU) (AU) (AU) (AG) (AG) (AG) (AU) (AU) (AU)
                 (AG) (AG) (AG) (AG) (AG) (AG) (AU) (AU) (AU) (AG)
                 (AG) (AG) (AG) (AG) (AG) (AU) (AU) (AU) (AU) (AU)
                 (AU) (AG) (AG) (AG) (AG) (AG) (AG) (AU) (AU) (AU)
                 (AG) (AG) (AG) (AU) (AU) (AU) (AG) (AG) (AU) (AU)
                 (AU) (AU) (AU) (AU) (AU) (AG) (AG) (AG) (AG) (AU)
                 (AU) (AU) (AG) (AG) (AU) (AU) (AU) (AG) (AG) (AU)
                 (AU) (AG) (AU) (AG) (AG) (AG) (AU) (AU) (AU) (AU)
                 (AU) (AU) (AG) (AG) (AG) (AG) (AG) (AG) (AU) (AU)
                 (AU) (AG) (AU) (AU) (AU) (AG) (AG) (AG) (AU) (AU)
                 (AU) (AG) (AG) (AG) (AG) (AG) (AG) (AU) (AU) (AU)
                 (AU) (AU) (AU) (AG) (AG) (AG) (AG) (AG) (AG) (AU)
                 (AU) (AU) (AG) (AG) (AU) (AU) (AU) (AG) (AU) (AU)
                 (AU) (AG) (AG) (AG) (AU) (AU) (AU) (AG) (AG) (AG)
                 (AG) (AG) (AG) (AU) (AU) (AU) (AG) (AG) (AG) (AG)
                 (AG) (AU) (AU) (AU) (AG) (AG) (AG) (AU) (AU) (AU)
                 (AG) (AG) (AG) (AU) (AU) (AU) (AG) (AG) (AG) (AU)
                 (AU) (AU) (AU) (AU) (AU) (AU) (AG) (AG) (AG) (AU)
                 (AU) (AU) (AG) (AG) (AG) (AU) (AU) (AU) (AU) (AU)
                 (AU) (AG) (AU) (AU) (AU) (AG) (AG) (AU) (AU) (AU)
                 (AG) (AG) (AG)
 Beta  Orbitals:
       Occupied  (AG) (AG) (AU) (AU) (AU) (AU) (AG) (AU) (AG) (AU)
                 (AG) (AG) (AU) (AU) (AU) (AG) (AU) (AU) (AU) (AG)
                 (AG) (AG) (AG) (AG) (AU) (AU) (AU) (AG) (AG) (AG)
                 (AG) (AU) (AU) (AU) (AG) (AG) (AU) (AU) (AU) (AG)
                 (AG) (AG)
       Virtual   (AG) (AG) (AG) (AU) (AU) (AU) (AG) (AG) (AG) (AG)
                 (AG) (AG) (AU) (AU) (AU) (AU) (AU) (AU) (AG) (AG)
                 (AG) (AG) (AG) (AG) (AU) (AU) (AU) (AU) (AU) (AU)
                 (AG) (AU) (AU) (AU) (AG) (AG) (AG) (AG) (AG) (AU)
                 (AU) (AU) (AG) (AG) (AG) (AG) (AU) (AU) (AU) (AG)
                 (AG) (AG) (AU) (AU) (AU) (AU) (AU) (AU) (AG) (AG)
                 (AG) (AG) (AG) (AG) (AG) (AG) (AG) (AU) (AU) (AU)
                 (AG) (AG) (AU) (AU) (AU) (AU) (AU) (AU) (AG) (AG)
                 (AG) (AG) (AU) (AU) (AU) (AG) (AG) (AG) (AG) (AG)
                 (AG) (AU) (AU) (AU) (AG) (AG) (AU) (AU) (AU) (AG)
                 (AU) (AU) (AU) (AU) (AU) (AU) (AG) (AG) (AG) (AU)
                 (AU) (AU) (AG) (AG) (AG) (AG) (AG) (AG) (AU) (AU)
                 (AU) (AG) (AG) (AG) (AG) (AG) (AG) (AU) (AU) (AU)
                 (AU) (AU) (AU) (AG) (AG) (AG) (AG) (AG) (AG) (AU)
                 (AU) (AU) (AG) (AG) (AG) (AU) (AU) (AU) (AU) (AU)
                 (AU) (AU) (AG) (AG) (AG) (AU) (AU) (AU) (AG) (AG)
                 (AG) (AU) (AU) (AU) (AG) (AG) (AU) (AU) (AU) (AG)
                 (AG) (AU) (AG) (AU) (AU) (AG) (AG) (AG) (AU) (AU)
                 (AU) (AU) (AU) (AU) (AG) (AG) (AG) (AG) (AG) (AG)
                 (AU) (AU) (AU) (AG) (AU) (AU) (AU) (AG) (AG) (AG)
                 (AU) (AU) (AU) (AG) (AG) (AG) (AG) (AG) (AG) (AU)
                 (AU) (AU) (AU) (AU) (AU) (AG) (AG) (AG) (AG) (AG)
                 (AG) (AU) (AU) (AU) (AG) (AG) (AU) (AU) (AU) (AG)
                 (AU) (AU) (AU) (AG) (AG) (AG) (AU) (AU) (AU) (AG)
                 (AG) (AG) (AG) (AG) (AG) (AU) (AU) (AU) (AG) (AG)
                 (AG) (AU) (AU) (AU) (AG) (AG) (AG) (AU) (AU) (AU)
                 (AG) (AG) (AG) (AG) (AG) (AU) (AU) (AU) (AG) (AG)
                 (AG) (AU) (AU) (AU) (AU) (AU) (AU) (AU) (AG) (AG)
                 (AG) (AU) (AU) (AU) (AG) (AG) (AG) (AU) (AU) (AU)
                 (AU) (AU) (AU) (AG) (AU) (AU) (AU) (AG) (AG) (AU)
                 (AU) (AU) (AG) (AG) (AG)
 The electronic state is 3-AG.
 Alpha  occ. eigenvalues -- -302.32526 -36.92893 -32.36864 -32.36864 -32.36862
 Alpha  occ. eigenvalues --  -19.93768 -19.93768 -19.93767 -19.93767 -19.93766
 Alpha  occ. eigenvalues --  -19.93766  -4.81214  -3.39319  -3.39318  -3.39316
 Alpha  occ. eigenvalues --   -1.43938  -1.43815  -1.43814  -1.43812  -1.43767
 Alpha  occ. eigenvalues --   -1.43767  -0.99652  -0.99652  -0.95973  -0.95973
 Alpha  occ. eigenvalues --   -0.95971  -0.91820  -0.91818  -0.91816  -0.91742
 Alpha  occ. eigenvalues --   -0.91741  -0.91738  -0.82562  -0.79925  -0.79916
 Alpha  occ. eigenvalues --   -0.79888  -0.78322  -0.78321  -0.70965  -0.70937
 Alpha  occ. eigenvalues --   -0.70928  -0.70916  -0.70911  -0.70907
 Alpha virt. eigenvalues --   -0.37699  -0.25094  -0.25073  -0.25069  -0.23931
 Alpha virt. eigenvalues --   -0.20396  -0.20395  -0.18136  -0.18129  -0.18127
 Alpha virt. eigenvalues --   -0.17664  -0.17644  -0.17640  -0.15834  -0.15829
 Alpha virt. eigenvalues --   -0.15827  -0.11226  -0.08731  -0.08700  -0.08608
 Alpha virt. eigenvalues --   -0.07910  -0.07905  -0.07903  -0.07900  -0.07883
 Alpha virt. eigenvalues --   -0.04934  -0.04931  -0.04920  -0.04343  -0.02296
 Alpha virt. eigenvalues --   -0.02293  -0.02276  -0.01917  -0.01915  -0.01913
 Alpha virt. eigenvalues --   -0.01551  -0.01551  -0.00569  -0.00568  -0.00561
 Alpha virt. eigenvalues --    0.01603   0.01818   0.01839   0.01894   0.04379
 Alpha virt. eigenvalues --    0.04385   0.04386   0.06782   0.12656   0.12658
 Alpha virt. eigenvalues --    0.13514   0.13655   0.13692   0.17562   0.17565
 Alpha virt. eigenvalues --    0.17572   0.17853   0.17967   0.18264   0.25612
 Alpha virt. eigenvalues --    0.25612   0.29001   0.30548   0.30556   0.30559
 Alpha virt. eigenvalues --    0.33636   0.33683   0.33688   0.34995   0.34996
 Alpha virt. eigenvalues --    0.36797   0.36830   0.36890   0.42608   0.42684
 Alpha virt. eigenvalues --    0.42701   0.43090   0.44277   0.44349   0.44377
 Alpha virt. eigenvalues --    0.56200   0.56293   0.56545   0.57850   0.57906
 Alpha virt. eigenvalues --    0.57943   0.59279   0.60362   0.60374   0.61729
 Alpha virt. eigenvalues --    0.61881   0.61936   0.69205   0.69270   0.69420
 Alpha virt. eigenvalues --    0.69432   0.69503   0.69526   0.73746   0.73890
 Alpha virt. eigenvalues --    0.73955   0.76098   0.76467   0.76613   0.82530
 Alpha virt. eigenvalues --    0.82555   0.82667   0.85317   0.85479   0.85917
 Alpha virt. eigenvalues --    0.88653   0.92500   0.92726   0.92811   0.94952
 Alpha virt. eigenvalues --    0.94959   1.10126   1.10146   1.10152   1.12786
 Alpha virt. eigenvalues --    1.14287   1.14297   1.19055   1.19125   1.19310
 Alpha virt. eigenvalues --    1.21080   1.21115   1.21139   1.30903   1.31130
 Alpha virt. eigenvalues --    1.31215   1.31970   1.31973   1.35546   1.36576
 Alpha virt. eigenvalues --    1.36812   1.36889   1.48130   1.48244   1.48302
 Alpha virt. eigenvalues --    1.52342   1.52427   1.52454   1.52604   1.53886
 Alpha virt. eigenvalues --    1.53888   1.54304   1.54393   1.55474   1.55552
 Alpha virt. eigenvalues --    1.55579   1.55922   1.56910   1.56914   1.56929
 Alpha virt. eigenvalues --    1.57790   1.57871   1.58010   1.66225   1.67279
 Alpha virt. eigenvalues --    1.67371   1.67652   1.69306   1.69312   1.89258
 Alpha virt. eigenvalues --    1.89338   1.89360   2.02732   2.03117   2.03208
 Alpha virt. eigenvalues --    2.03255   2.03259   2.03375   2.03656   2.05313
 Alpha virt. eigenvalues --    2.05320   2.08352   2.08514   2.08602   2.26835
 Alpha virt. eigenvalues --    2.26876   2.26993   2.28136   2.28142   2.30470
 Alpha virt. eigenvalues --    2.60435   2.60471   2.60485   2.61020   2.61049
 Alpha virt. eigenvalues --    2.61059   3.12988   3.43887   3.43971   3.43974
 Alpha virt. eigenvalues --    3.44768   3.44796   3.44873   3.52519   3.52524
 Alpha virt. eigenvalues --    3.52537   3.53378   3.53459   3.53647   3.55150
 Alpha virt. eigenvalues --    3.55151   3.55157   3.55359   3.55397   3.55415
 Alpha virt. eigenvalues --    3.79473   3.79499   3.79508   3.81454   3.83355
 Alpha virt. eigenvalues --    3.83370   3.83983   3.84053   3.84207   3.86381
 Alpha virt. eigenvalues --    3.86405   3.86421   3.95803   3.95803   3.96724
 Alpha virt. eigenvalues --    3.96739   3.96779   3.99100   4.84283   4.84386
 Alpha virt. eigenvalues --    4.84672   4.87473   4.87529   4.87534   5.39681
 Alpha virt. eigenvalues --    5.39864   5.39930   5.41511   5.42919   5.42926
 Alpha virt. eigenvalues --    5.96928   5.96953   5.96992   5.97098   5.97098
 Alpha virt. eigenvalues --    5.97118   6.40526   6.40654   6.40698   6.49618
 Alpha virt. eigenvalues --    6.49623   6.54121   6.54175   6.54326   6.55894
 Alpha virt. eigenvalues --    6.56002   6.56021   6.57037   6.57053   6.57055
 Alpha virt. eigenvalues --    6.59992   6.60050   6.60196   6.65569   6.65578
 Alpha virt. eigenvalues --    6.65585   6.66517   6.69758   6.69761   6.80330
 Alpha virt. eigenvalues --    6.80337   6.80351   6.80614   6.85789   6.85803
 Alpha virt. eigenvalues --    6.85837   6.97617   6.97621   6.98358   6.98703
 Alpha virt. eigenvalues --    6.98727   6.98792   7.13653   7.13657   7.13659
 Alpha virt. eigenvalues --    7.14159   7.14163   7.14165   8.47125   8.47470
 Alpha virt. eigenvalues --    8.47609  29.43897  36.05441  36.05703  36.05810
 Alpha virt. eigenvalues --   49.71943  49.71944  49.73244  49.73277  49.73291
 Alpha virt. eigenvalues --   49.76070 161.93802 844.40024
  Beta  occ. eigenvalues -- -302.32647 -36.86432 -32.31608 -32.31608 -32.31608
  Beta  occ. eigenvalues --  -19.93713 -19.93713 -19.93711 -19.93711 -19.93711
  Beta  occ. eigenvalues --  -19.93711  -4.71513  -3.26210  -3.26209  -3.26209
  Beta  occ. eigenvalues --   -1.43825  -1.43698  -1.43697  -1.43695  -1.43644
  Beta  occ. eigenvalues --   -1.43643  -0.91864  -0.91862  -0.91857  -0.91762
  Beta  occ. eigenvalues --   -0.91761  -0.91758  -0.88796  -0.88795  -0.88794
  Beta  occ. eigenvalues --   -0.82399  -0.79643  -0.79633  -0.79603  -0.79101
  Beta  occ. eigenvalues --   -0.79100  -0.70877  -0.70846  -0.70835  -0.70809
  Beta  occ. eigenvalues --   -0.70804  -0.70800
  Beta virt. eigenvalues --   -0.41059  -0.41059  -0.36743  -0.25097  -0.25077
  Beta virt. eigenvalues --   -0.25073  -0.23704  -0.20318  -0.20318  -0.18117
  Beta virt. eigenvalues --   -0.18111  -0.18108  -0.17608  -0.17588  -0.17585
  Beta virt. eigenvalues --   -0.15808  -0.15802  -0.15800  -0.11182  -0.08714
  Beta virt. eigenvalues --   -0.08683  -0.08592  -0.07856  -0.07854  -0.07778
  Beta virt. eigenvalues --   -0.07767  -0.07748  -0.04937  -0.04935  -0.04925
  Beta virt. eigenvalues --   -0.04003  -0.02058  -0.02053  -0.02032  -0.01917
  Beta virt. eigenvalues --   -0.01915  -0.01914  -0.01502  -0.01502  -0.00564
  Beta virt. eigenvalues --   -0.00563  -0.00557   0.01618   0.01774   0.01795
  Beta virt. eigenvalues --    0.01846   0.04360   0.04366   0.04366   0.06806
  Beta virt. eigenvalues --    0.12722   0.12724   0.13522   0.13668   0.13708
  Beta virt. eigenvalues --    0.17610   0.17613   0.17620   0.17663   0.17779
  Beta virt. eigenvalues --    0.18080   0.27696   0.27696   0.29127   0.30564
  Beta virt. eigenvalues --    0.30572   0.30575   0.33652   0.33700   0.33705
  Beta virt. eigenvalues --    0.35127   0.35129   0.36835   0.36870   0.36928
  Beta virt. eigenvalues --    0.42600   0.42676   0.42693   0.43147   0.44271
  Beta virt. eigenvalues --    0.44343   0.44370   0.56362   0.56457   0.56712
  Beta virt. eigenvalues --    0.57857   0.57911   0.57947   0.59374   0.60642
  Beta virt. eigenvalues --    0.60653   0.61668   0.61820   0.61874   0.69241
  Beta virt. eigenvalues --    0.69307   0.69329   0.69419   0.69445   0.69469
  Beta virt. eigenvalues --    0.73701   0.73851   0.73918   0.76095   0.76453
  Beta virt. eigenvalues --    0.76595   0.82513   0.82538   0.82651   0.85453
  Beta virt. eigenvalues --    0.85613   0.86044   0.88342   0.92659   0.92893
  Beta virt. eigenvalues --    0.92980   0.95181   0.95189   1.10005   1.10024
  Beta virt. eigenvalues --    1.10030   1.12741   1.14122   1.14133   1.19085
  Beta virt. eigenvalues --    1.19155   1.19338   1.21113   1.21150   1.21172
  Beta virt. eigenvalues --    1.30911   1.31139   1.31224   1.33115   1.33121
  Beta virt. eigenvalues --    1.35622   1.38355   1.38588   1.38655   1.48895
  Beta virt. eigenvalues --    1.48997   1.49050   1.52558   1.52598   1.52623
  Beta virt. eigenvalues --    1.52817   1.53900   1.53900   1.56311   1.57497
  Beta virt. eigenvalues --    1.57568   1.57594   1.58248   1.58276   1.58491
  Beta virt. eigenvalues --    1.59158   1.59194   1.59209   1.59817   1.59872
  Beta virt. eigenvalues --    1.66430   1.67594   1.67692   1.67986   1.69641
  Beta virt. eigenvalues --    1.69646   1.90315   1.90384   1.90402   2.02817
  Beta virt. eigenvalues --    2.03205   2.03303   2.03348   2.03351   2.03475
  Beta virt. eigenvalues --    2.03735   2.05436   2.05443   2.08632   2.08789
  Beta virt. eigenvalues --    2.08876   2.26869   2.26910   2.27027   2.28217
  Beta virt. eigenvalues --    2.28222   2.30496   2.60457   2.60492   2.60506
  Beta virt. eigenvalues --    2.61049   2.61078   2.61088   3.18788   3.43891
  Beta virt. eigenvalues --    3.43974   3.43978   3.44772   3.44800   3.44877
  Beta virt. eigenvalues --    3.52521   3.52526   3.52539   3.53382   3.53463
  Beta virt. eigenvalues --    3.53651   3.55155   3.55156   3.55162   3.55373
  Beta virt. eigenvalues --    3.55410   3.55428   3.79504   3.79531   3.79540
  Beta virt. eigenvalues --    3.81743   3.83388   3.83403   3.84029   3.84099
  Beta virt. eigenvalues --    3.84253   3.86428   3.86452   3.86468   3.95836
  Beta virt. eigenvalues --    3.95836   3.96752   3.96767   3.96807   3.99230
  Beta virt. eigenvalues --    4.84392   4.84495   4.84778   4.87571   4.87626
  Beta virt. eigenvalues --    4.87632   5.39963   5.40145   5.40210   5.41765
  Beta virt. eigenvalues --    5.43101   5.43108   5.96974   5.96999   5.97038
  Beta virt. eigenvalues --    5.97144   5.97145   5.97164   6.44440   6.44558
  Beta virt. eigenvalues --    6.44595   6.54285   6.54338   6.54489   6.56106
  Beta virt. eigenvalues --    6.56202   6.56229   6.57119   6.57130   6.57131
  Beta virt. eigenvalues --    6.60798   6.60847   6.60986   6.66167   6.66174
  Beta virt. eigenvalues --    6.66554   6.66559   6.66564   6.66681   6.73304
  Beta virt. eigenvalues --    6.73307   6.85509   6.87020   6.87023   6.87027
  Beta virt. eigenvalues --    6.92039   6.92048   6.92066   6.97906   6.97910
  Beta virt. eigenvalues --    6.98433   7.01312   7.01343   7.01431   7.13782
  Beta virt. eigenvalues --    7.13786   7.13788   7.14475   7.14477   7.14480
  Beta virt. eigenvalues --    8.55573   8.55914   8.56051  29.55718  36.14400
  Beta virt. eigenvalues --   36.14664  36.14771  49.71917  49.71919  49.73219
  Beta virt. eigenvalues --   49.73252  49.73266  49.76046 161.93684 844.39578
          Condensed to atoms (all electrons):
               1          2          3          4          5          6
     1  Ni  26.463085   0.130946  -0.002426  -0.002504   0.130993  -0.002441
     2  O    0.130946   7.773296   0.291221   0.291428  -0.003105   0.000339
     3  H   -0.002426   0.291221   0.383622  -0.010489  -0.000065  -0.000290
     4  H   -0.002504   0.291428  -0.010489   0.383393  -0.000065  -0.000303
     5  O    0.130993  -0.003105  -0.000065  -0.000065   7.773206   0.291195
     6  H   -0.002441   0.000339  -0.000290  -0.000303   0.291195   0.383664
     7  H   -0.002533  -0.000058   0.000000  -0.000002   0.291440  -0.010474
     8  O    0.130942  -0.003325  -0.000061   0.000373  -0.003436  -0.000066
     9  H   -0.002389  -0.000070  -0.000004  -0.000299  -0.000063  -0.000004
    10  H   -0.002569  -0.000055   0.000000  -0.000295   0.000393  -0.000299
    11  O    0.130946   0.000715   0.000035   0.000036  -0.003352  -0.000062
    12  H   -0.002426   0.000035   0.000006  -0.000038  -0.000069  -0.000004
    13  H   -0.002504   0.000036  -0.000038   0.000006  -0.000057   0.000000
    14  O    0.130993  -0.003352  -0.000069  -0.000057   0.000715   0.000035
    15  H   -0.002441  -0.000062  -0.000004   0.000000   0.000035   0.000006
    16  H   -0.002533   0.000378  -0.000303  -0.000291   0.000036  -0.000038
    17  O    0.130942  -0.003131   0.000344  -0.000058  -0.003019  -0.000066
    18  H   -0.002389  -0.000068  -0.000291  -0.000002   0.000321  -0.000293
    19  H   -0.002569  -0.000060  -0.000303  -0.000001  -0.000057  -0.000001
               7          8          9         10         11         12
     1  Ni  -0.002533   0.130942  -0.002389  -0.002569   0.130946  -0.002426
     2  O   -0.000058  -0.003325  -0.000070  -0.000055   0.000715   0.000035
     3  H    0.000000  -0.000061  -0.000004   0.000000   0.000035   0.000006
     4  H   -0.000002   0.000373  -0.000299  -0.000295   0.000036  -0.000038
     5  O    0.291440  -0.003436  -0.000063   0.000393  -0.003352  -0.000069
     6  H   -0.010474  -0.000066  -0.000004  -0.000299  -0.000062  -0.000004
     7  H    0.383410  -0.000057  -0.000001  -0.000297   0.000378  -0.000303
     8  O   -0.000057   7.773294   0.291120   0.291505  -0.003131   0.000344
     9  H   -0.000001   0.291120   0.383666  -0.010486  -0.000068  -0.000291
    10  H   -0.000297   0.291505  -0.010486   0.383396  -0.000060  -0.000303
    11  O    0.000378  -0.003131  -0.000068  -0.000060   7.773296   0.291221
    12  H   -0.000303   0.000344  -0.000291  -0.000303   0.291221   0.383622
    13  H   -0.000291  -0.000058  -0.000002  -0.000001   0.291428  -0.010489
    14  O    0.000036  -0.003019   0.000321  -0.000057  -0.003105  -0.000065
    15  H   -0.000038  -0.000066  -0.000293  -0.000001   0.000339  -0.000290
    16  H    0.000006  -0.000062  -0.000299  -0.000001  -0.000058   0.000000
    17  O   -0.000062   0.000716   0.000035   0.000036  -0.003325  -0.000061
    18  H   -0.000299   0.000035   0.000006  -0.000038  -0.000070  -0.000004
    19  H   -0.000001   0.000036  -0.000038   0.000006  -0.000055   0.000000
              13         14         15         16         17         18
     1  Ni  -0.002504   0.130993  -0.002441  -0.002533   0.130942  -0.002389
     2  O    0.000036  -0.003352  -0.000062   0.000378  -0.003131  -0.000068
     3  H   -0.000038  -0.000069  -0.000004  -0.000303   0.000344  -0.000291
     4  H    0.000006  -0.000057   0.000000  -0.000291  -0.000058  -0.000002
     5  O   -0.000057   0.000715   0.000035   0.000036  -0.003019   0.000321
     6  H    0.000000   0.000035   0.000006  -0.000038  -0.000066  -0.000293
     7  H   -0.000291   0.000036  -0.000038   0.000006  -0.000062  -0.000299
     8  O   -0.000058  -0.003019  -0.000066  -0.000062   0.000716   0.000035
     9  H   -0.000002   0.000321  -0.000293  -0.000299   0.000035   0.000006
    10  H   -0.000001  -0.000057  -0.000001  -0.000001   0.000036  -0.000038
    11  O    0.291428  -0.003105   0.000339  -0.000058  -0.003325  -0.000070
    12  H   -0.010489  -0.000065  -0.000290   0.000000  -0.000061  -0.000004
    13  H    0.383393  -0.000065  -0.000303  -0.000002   0.000373  -0.000299
    14  O   -0.000065   7.773206   0.291195   0.291440  -0.003436  -0.000063
    15  H   -0.000303   0.291195   0.383664  -0.010474  -0.000066  -0.000004
    16  H   -0.000002   0.291440  -0.010474   0.383410  -0.000057  -0.000001
    17  O    0.000373  -0.003436  -0.000066  -0.000057   7.773294   0.291120
    18  H   -0.000299  -0.000063  -0.000004  -0.000001   0.291120   0.383666
    19  H   -0.000295   0.000393  -0.000299  -0.000297   0.291505  -0.010486
              19
     1  Ni  -0.002569
     2  O   -0.000060
     3  H   -0.000303
     4  H   -0.000001
     5  O   -0.000057
     6  H   -0.000001
     7  H   -0.000001
     8  O    0.000036
     9  H   -0.000038
    10  H    0.000006
    11  O   -0.000055
    12  H    0.000000
    13  H   -0.000295
    14  O    0.000393
    15  H   -0.000299
    16  H   -0.000297
    17  O    0.291505
    18  H   -0.010486
    19  H    0.383396
          Atomic-Atomic Spin Densities.
               1          2          3          4          5          6
     1  Ni   1.944457  -0.011544   0.001003   0.000993  -0.011550   0.001005
     2  O   -0.011544   0.030770  -0.001847  -0.001830  -0.000225   0.000019
     3  H    0.001003  -0.001847   0.001693   0.000910   0.000039  -0.000011
     4  H    0.000993  -0.001830   0.000910   0.001667   0.000039  -0.000010
     5  O   -0.011550  -0.000225   0.000039   0.000039   0.030784  -0.001849
     6  H    0.001005   0.000019  -0.000011  -0.000010  -0.001849   0.001696
     7  H    0.000993   0.000061  -0.000009  -0.000009  -0.001827   0.000909
     8  O   -0.011547  -0.000236   0.000059   0.000021  -0.000243   0.000041
     9  H    0.001009   0.000040  -0.000009  -0.000010   0.000058  -0.000010
    10  H    0.000988   0.000042  -0.000009  -0.000010   0.000022  -0.000010
    11  O   -0.011544   0.000181   0.000005   0.000005  -0.000238   0.000059
    12  H    0.001003   0.000005  -0.000003   0.000000   0.000040  -0.000009
    13  H    0.000993   0.000005   0.000000  -0.000003   0.000042  -0.000009
    14  O   -0.011550  -0.000238   0.000040   0.000042   0.000181   0.000005
    15  H    0.001005   0.000059  -0.000009  -0.000009   0.000005  -0.000003
    16  H    0.000993   0.000021  -0.000010  -0.000010   0.000005   0.000000
    17  O   -0.011547  -0.000226   0.000019   0.000061  -0.000219   0.000038
    18  H    0.001009   0.000039  -0.000011  -0.000009   0.000018  -0.000011
    19  H    0.000988   0.000040  -0.000010  -0.000009   0.000062  -0.000009
               7          8          9         10         11         12
     1  Ni   0.000993  -0.011547   0.001009   0.000988  -0.011544   0.001003
     2  O    0.000061  -0.000236   0.000040   0.000042   0.000181   0.000005
     3  H   -0.000009   0.000059  -0.000009  -0.000009   0.000005  -0.000003
     4  H   -0.000009   0.000021  -0.000010  -0.000010   0.000005   0.000000
     5  O   -0.001827  -0.000243   0.000058   0.000022  -0.000238   0.000040
     6  H    0.000909   0.000041  -0.000010  -0.000010   0.000059  -0.000009
     7  H    0.001662   0.000043  -0.000009  -0.000010   0.000021  -0.000010
     8  O    0.000043   0.030775  -0.001862  -0.001817  -0.000226   0.000019
     9  H   -0.000009  -0.001862   0.001719   0.000910   0.000039  -0.000011
    10  H   -0.000010  -0.001817   0.000910   0.001646   0.000040  -0.000010
    11  O    0.000021  -0.000226   0.000039   0.000040   0.030770  -0.001847
    12  H   -0.000010   0.000019  -0.000011  -0.000010  -0.001847   0.001693
    13  H   -0.000010   0.000061  -0.000009  -0.000009  -0.001830   0.000910
    14  O    0.000005  -0.000219   0.000018   0.000062  -0.000225   0.000039
    15  H    0.000000   0.000038  -0.000011  -0.000009   0.000019  -0.000011
    16  H   -0.000003   0.000039  -0.000010  -0.000009   0.000061  -0.000009
    17  O    0.000039   0.000181   0.000005   0.000005  -0.000236   0.000059
    18  H   -0.000010   0.000005  -0.000003   0.000000   0.000040  -0.000009
    19  H   -0.000009   0.000005   0.000000  -0.000003   0.000042  -0.000009
              13         14         15         16         17         18
     1  Ni   0.000993  -0.011550   0.001005   0.000993  -0.011547   0.001009
     2  O    0.000005  -0.000238   0.000059   0.000021  -0.000226   0.000039
     3  H    0.000000   0.000040  -0.000009  -0.000010   0.000019  -0.000011
     4  H   -0.000003   0.000042  -0.000009  -0.000010   0.000061  -0.000009
     5  O    0.000042   0.000181   0.000005   0.000005  -0.000219   0.000018
     6  H   -0.000009   0.000005  -0.000003   0.000000   0.000038  -0.000011
     7  H   -0.000010   0.000005   0.000000  -0.000003   0.000039  -0.000010
     8  O    0.000061  -0.000219   0.000038   0.000039   0.000181   0.000005
     9  H   -0.000009   0.000018  -0.000011  -0.000010   0.000005  -0.000003
    10  H   -0.000009   0.000062  -0.000009  -0.000009   0.000005   0.000000
    11  O   -0.001830  -0.000225   0.000019   0.000061  -0.000236   0.000040
    12  H    0.000910   0.000039  -0.000011  -0.000009   0.000059  -0.000009
    13  H    0.001667   0.000039  -0.000010  -0.000009   0.000021  -0.000010
    14  O    0.000039   0.030784  -0.001849  -0.001827  -0.000243   0.000058
    15  H   -0.000010  -0.001849   0.001696   0.000909   0.000041  -0.000010
    16  H   -0.000009  -0.001827   0.000909   0.001662   0.000043  -0.000009
    17  O    0.000021  -0.000243   0.000041   0.000043   0.030775  -0.001862
    18  H   -0.000010   0.000058  -0.000010  -0.000009  -0.001862   0.001719
    19  H   -0.000010   0.000022  -0.000010  -0.000010  -0.001817   0.000910
              19
     1  Ni   0.000988
     2  O    0.000040
     3  H   -0.000010
     4  H   -0.000009
     5  O    0.000062
     6  H   -0.000009
     7  H   -0.000009
     8  O    0.000005
     9  H    0.000000
    10  H   -0.000003
    11  O    0.000042
    12  H   -0.000009
    13  H   -0.000010
    14  O    0.000022
    15  H   -0.000010
    16  H   -0.000010
    17  O   -0.001817
    18  H    0.000910
    19  H    0.001646
 Mulliken charges and spin densities:
               1          2
     1  Ni   0.780876   1.887156
     2  O   -0.475109   0.015134
     3  H    0.339112   0.001840
     4  H    0.339167   0.001828
     5  O   -0.475048   0.015145
     6  H    0.339100   0.001842
     7  H    0.339145   0.001826
     8  O   -0.475084   0.015135
     9  H    0.339157   0.001851
    10  H    0.339123   0.001819
    11  O   -0.475109   0.015134
    12  H    0.339112   0.001840
    13  H    0.339167   0.001828
    14  O   -0.475048   0.015145
    15  H    0.339100   0.001842
    16  H    0.339145   0.001826
    17  O   -0.475084   0.015135
    18  H    0.339157   0.001851
    19  H    0.339123   0.001819
 Sum of Mulliken charges =   2.00000   2.00000
 Mulliken charges and spin densities with hydrogens summed into heavy atoms:
               1          2
     1  Ni   0.780876   1.887156
     2  O    0.203170   0.018802
     5  O    0.203197   0.018814
     8  O    0.203195   0.018806
    11  O    0.203170   0.018802
    14  O    0.203197   0.018814
    17  O    0.203195   0.018806
 Electronic spatial extent (au):  <R**2>=           1633.7197
 Charge=              2.0000 electrons
 Dipole moment (field-independent basis, Debye):
    X=              0.0000    Y=              0.0000    Z=              0.0000  Tot=              0.0000
 Quadrupole moment (field-independent basis, Debye-Ang):
   XX=             -8.6221   YY=             -8.6199   ZZ=             -8.6265
   XY=              0.0730   XZ=             -0.0824   YZ=             -0.1377
 Traceless Quadrupole moment (field-independent basis, Debye-Ang):
   XX=              0.0007   YY=              0.0029   ZZ=             -0.0036
   XY=              0.0730   XZ=             -0.0824   YZ=             -0.1377
 Octapole moment (field-independent basis, Debye-Ang**2):
  XXX=              0.0000  YYY=              0.0000  ZZZ=              0.0000  XYY=              0.0000
  XXY=              0.0000  XXZ=              0.0000  XZZ=              0.0000  YZZ=              0.0000
  YYZ=              0.0000  XYZ=              0.0000
 Hexadecapole moment (field-independent basis, Debye-Ang**3):
 XXXX=            -72.4214 YYYY=            -72.4398 ZZZZ=            -72.6839 XXXY=             -1.7172
 XXXZ=             -4.8075 YYYX=              3.6095 YYYZ=              3.7051 ZZZX=              2.3567
 ZZZY=             -7.8932 XXYY=           -153.4273 XXZZ=           -153.3945 YYZZ=           -153.2915
 XXYZ=              0.0771 YYXZ=              0.0744 ZZXY=              0.0346
 N-N= 5.774570489780D+02 E-N=-5.809083139262D+03  KE= 1.962416774437D+03
 Symmetry AG   KE= 1.230010488627D+03
 Symmetry AU   KE= 7.324062858101D+02
                          Isotropic Fermi Contact Couplings
        Atom                 a.u.       MegaHertz       Gauss      10(-4) cm-1
     1  Ni(61)            -1.12857     225.78707      80.56644      75.31446
     2  O(17)              0.04340     -13.15479      -4.69396      -4.38797
     3  H(1)               0.00043       0.95060       0.33920       0.31709
     4  H(1)               0.00042       0.93716       0.33440       0.31260
     5  O(17)              0.04340     -13.15319      -4.69339      -4.38743
     6  H(1)               0.00043       0.95150       0.33952       0.31739
     7  H(1)               0.00042       0.93346       0.33308       0.31137
     8  O(17)              0.04341     -13.15772      -4.69500      -4.38894
     9  H(1)               0.00043       0.96289       0.34358       0.32119
    10  H(1)               0.00041       0.92569       0.33031       0.30878
    11  O(17)              0.04340     -13.15479      -4.69396      -4.38797
    12  H(1)               0.00043       0.95060       0.33920       0.31709
    13  H(1)               0.00042       0.93716       0.33440       0.31260
    14  O(17)              0.04340     -13.15319      -4.69339      -4.38743
    15  H(1)               0.00043       0.95150       0.33952       0.31739
    16  H(1)               0.00042       0.93346       0.33308       0.31137
    17  O(17)              0.04341     -13.15772      -4.69500      -4.38894
    18  H(1)               0.00043       0.96289       0.34358       0.32119
    19  H(1)               0.00041       0.92569       0.33031       0.30878
 --------------------------------------------------------
       Center         ----  Spin Dipole Couplings  ----
                      3XX-RR        3YY-RR        3ZZ-RR
 --------------------------------------------------------
     1   Atom        0.000196     -0.000072     -0.000124
     2   Atom        0.092648     -0.048343     -0.044304
     3   Atom        0.015117     -0.004766     -0.010351
     4   Atom        0.014947     -0.004588     -0.010359
     5   Atom       -0.048364     -0.044320      0.092684
     6   Atom       -0.004796     -0.010347      0.015142
     7   Atom       -0.004554     -0.010363      0.014917
     8   Atom       -0.044306      0.092625     -0.048319
     9   Atom       -0.010337      0.015206     -0.004869
    10   Atom       -0.010378      0.014853     -0.004474
    11   Atom        0.092648     -0.048343     -0.044304
    12   Atom        0.015117     -0.004766     -0.010351
    13   Atom        0.014947     -0.004588     -0.010359
    14   Atom       -0.048364     -0.044320      0.092684
    15   Atom       -0.004796     -0.010347      0.015142
    16   Atom       -0.004554     -0.010363      0.014917
    17   Atom       -0.044306      0.092625     -0.048319
    18   Atom       -0.010337      0.015206     -0.004869
    19   Atom       -0.010378      0.014853     -0.004474
 --------------------------------------------------------
                        XY            XZ            YZ
 --------------------------------------------------------
     1   Atom       -0.000914      0.000879      0.001210
     2   Atom       -0.000984      0.000203     -0.000073
     3   Atom        0.007291     -0.000074      0.000003
     4   Atom       -0.007547     -0.000356      0.000217
     5   Atom        0.000031      0.001299      0.000449
     6   Atom        0.000132     -0.007249     -0.000295
     7   Atom       -0.000219      0.007593     -0.000399
     8   Atom       -0.000166     -0.000047      0.002154
     9   Atom        0.000075     -0.000012     -0.007133
    10   Atom        0.000246      0.000150      0.007704
    11   Atom       -0.000984      0.000203     -0.000073
    12   Atom        0.007291     -0.000074      0.000003
    13   Atom       -0.007547     -0.000356      0.000217
    14   Atom        0.000031      0.001299      0.000449
    15   Atom        0.000132     -0.007249     -0.000295
    16   Atom       -0.000219      0.007593     -0.000399
    17   Atom       -0.000166     -0.000047      0.002154
    18   Atom        0.000075     -0.000012     -0.007133
    19   Atom        0.000246      0.000150      0.007704
 --------------------------------------------------------


 ---------------------------------------------------------------------------------
              Anisotropic Spin Dipole Couplings in Principal Axis System
 ---------------------------------------------------------------------------------

       Atom             a.u.   MegaHertz   Gauss  10(-4) cm-1        Axes

              Baa    -0.0020     0.097     0.035     0.032 -0.4949 -0.6121  0.6168
     1 Ni(61) Bbb     0.0009    -0.044    -0.016    -0.015  0.8569 -0.2261  0.4632
              Bcc     0.0011    -0.053    -0.019    -0.018 -0.1441  0.7578  0.6364
 
              Baa    -0.0484     3.499     1.248     1.167  0.0069  0.9998  0.0177
     2 O(17)  Bbb    -0.0443     3.206     1.144     1.069 -0.0016 -0.0177  0.9998
              Bcc     0.0927    -6.704    -2.392    -2.236  1.0000 -0.0070  0.0015
 
              Baa    -0.0104    -5.523    -1.971    -1.842  0.0049 -0.0069  1.0000
     3 H(1)   Bbb    -0.0072    -3.817    -1.362    -1.273 -0.3111  0.9503  0.0081
              Bcc     0.0175     9.340     3.333     3.115  0.9504  0.3111 -0.0025
 
              Baa    -0.0104    -5.532    -1.974    -1.845  0.0047 -0.0314  0.9995
     4 H(1)   Bbb    -0.0072    -3.821    -1.363    -1.274  0.3234  0.9459  0.0282
              Bcc     0.0175     9.352     3.337     3.120  0.9463 -0.3231 -0.0146
 
              Baa    -0.0484     3.500     1.249     1.168  0.9999 -0.0066 -0.0092
     5 O(17)  Bbb    -0.0443     3.207     1.144     1.070  0.0066  1.0000 -0.0033
              Bcc     0.0927    -6.708    -2.393    -2.237  0.0092  0.0033  1.0000
 
              Baa    -0.0104    -5.523    -1.971    -1.842 -0.0137  0.9999  0.0077
     6 H(1)   Bbb    -0.0072    -3.816    -1.362    -1.273  0.9509  0.0107  0.3093
              Bcc     0.0175     9.339     3.332     3.115 -0.3092 -0.0116  0.9509
 
              Baa    -0.0104    -5.534    -1.975    -1.846  0.0282  0.9996  0.0073
     7 H(1)   Bbb    -0.0072    -3.822    -1.364    -1.275  0.9452 -0.0242 -0.3255
              Bcc     0.0175     9.356     3.338     3.121  0.3252 -0.0161  0.9455
 
              Baa    -0.0484     3.499     1.248     1.167  0.0109 -0.0153  0.9998
     8 O(17)  Bbb    -0.0443     3.206     1.144     1.069  0.9999  0.0014 -0.0109
              Bcc     0.0927    -6.705    -2.392    -2.236 -0.0012  0.9999  0.0153
 
              Baa    -0.0103    -5.515    -1.968    -1.840  1.0000 -0.0036 -0.0024
     9 H(1)   Bbb    -0.0071    -3.813    -1.360    -1.272  0.0034  0.3040  0.9527
              Bcc     0.0175     9.328     3.329     3.112  0.0027  0.9527 -0.3040
 
              Baa    -0.0104    -5.540    -1.977    -1.848  0.9998 -0.0033 -0.0211
    10 H(1)   Bbb    -0.0072    -3.825    -1.365    -1.276  0.0188 -0.3304  0.9437
              Bcc     0.0176     9.364     3.341     3.124  0.0101  0.9439  0.3302
 
              Baa    -0.0484     3.499     1.248     1.167  0.0069  0.9998  0.0177
    11 O(17)  Bbb    -0.0443     3.206     1.144     1.069 -0.0016 -0.0177  0.9998
              Bcc     0.0927    -6.704    -2.392    -2.236  1.0000 -0.0070  0.0015
 
              Baa    -0.0104    -5.523    -1.971    -1.842  0.0049 -0.0069  1.0000
    12 H(1)   Bbb    -0.0072    -3.817    -1.362    -1.273 -0.3111  0.9503  0.0081
              Bcc     0.0175     9.340     3.333     3.115  0.9504  0.3111 -0.0025
 
              Baa    -0.0104    -5.532    -1.974    -1.845  0.0047 -0.0314  0.9995
    13 H(1)   Bbb    -0.0072    -3.821    -1.363    -1.274  0.3234  0.9459  0.0282
              Bcc     0.0175     9.352     3.337     3.120  0.9463 -0.3231 -0.0146
 
              Baa    -0.0484     3.500     1.249     1.168  0.9999 -0.0066 -0.0092
    14 O(17)  Bbb    -0.0443     3.207     1.144     1.070  0.0066  1.0000 -0.0033
              Bcc     0.0927    -6.708    -2.393    -2.237  0.0092  0.0033  1.0000
 
              Baa    -0.0104    -5.523    -1.971    -1.842 -0.0137  0.9999  0.0077
    15 H(1)   Bbb    -0.0072    -3.816    -1.362    -1.273  0.9509  0.0107  0.3093
              Bcc     0.0175     9.339     3.332     3.115 -0.3092 -0.0116  0.9509
 
              Baa    -0.0104    -5.534    -1.975    -1.846  0.0282  0.9996  0.0073
    16 H(1)   Bbb    -0.0072    -3.822    -1.364    -1.275  0.9452 -0.0242 -0.3255
              Bcc     0.0175     9.356     3.338     3.121  0.3252 -0.0161  0.9455
 
              Baa    -0.0484     3.499     1.248     1.167  0.0109 -0.0153  0.9998
    17 O(17)  Bbb    -0.0443     3.206     1.144     1.069  0.9999  0.0014 -0.0109
              Bcc     0.0927    -6.705    -2.392    -2.236 -0.0012  0.9999  0.0153
 
              Baa    -0.0103    -5.515    -1.968    -1.840  1.0000 -0.0036 -0.0024
    18 H(1)   Bbb    -0.0071    -3.813    -1.360    -1.272  0.0034  0.3040  0.9527
              Bcc     0.0175     9.328     3.329     3.112  0.0027  0.9527 -0.3040
 
              Baa    -0.0104    -5.540    -1.977    -1.848  0.9998 -0.0033 -0.0211
    19 H(1)   Bbb    -0.0072    -3.825    -1.365    -1.276  0.0188 -0.3304  0.9437
              Bcc     0.0176     9.364     3.341     3.124  0.0101  0.9439  0.3302
 

 ---------------------------------------------------------------------------------

 Calling FoFJK, ICntrl=      2127 FMM=F ISym2X=1 I1Cent= 0 IOpClX= 1 NMat=1 NMatS=1 NMatT=0.
 ***** Axes restored to original set *****
 -------------------------------------------------------------------
 Center     Atomic                   Forces (Hartrees/Bohr)
 Number     Number              X              Y              Z
 -------------------------------------------------------------------
      1       28           0.000000000    0.000000000    0.000000000
      2        8           0.027242880   -0.000133400   -0.000233627
      3        1           0.000812426    0.000465686    0.000020663
      4        1           0.000801781   -0.000513658    0.000014872
      5        8          -0.000173768    0.000388639   -0.027242321
      6        1           0.000456863   -0.000038011   -0.000814816
      7        1          -0.000521168   -0.000034790   -0.000800777
      8        8          -0.000172640   -0.027253089   -0.000248231
      9        1           0.000014599   -0.000821698    0.000432533
     10        1           0.000011004   -0.000781554   -0.000553899
     11        8          -0.027242880    0.000133400    0.000233627
     12        1          -0.000812426   -0.000465686   -0.000020663
     13        1          -0.000801781    0.000513658   -0.000014872
     14        8           0.000173768   -0.000388639    0.027242321
     15        1          -0.000456863    0.000038011    0.000814816
     16        1           0.000521168    0.000034790    0.000800777
     17        8           0.000172640    0.027253089    0.000248231
     18        1          -0.000014599    0.000821698   -0.000432533
     19        1          -0.000011004    0.000781554    0.000553899
 -------------------------------------------------------------------
 Cartesian Forces:  Max     0.027253089 RMS     0.008851102

 GradGradGradGradGradGradGradGradGradGradGradGradGradGradGradGradGradGrad
 Berny optimization.
 FormGI is forming the generalized inverse of G from B-inverse, IUseBI=4.
 Internal  Forces:  Max     0.028860625 RMS     0.006627990
 Search for a local minimum.
 Step number   1 out of a maximum of  114
 All quantities printed in internal units (Hartrees-Bohrs-Radians)
 Mixed Optimization -- En-DIIS/RFO-DIIS
 Second derivative matrix not updated -- first step.
 ITU=  0
     Eigenvalues ---    0.00230   0.00230   0.00230   0.00230   0.00230
     Eigenvalues ---    0.00230   0.00230   0.00230   0.00230   0.00230
     Eigenvalues ---    0.00231   0.00231   0.05494   0.05495   0.05496
     Eigenvalues ---    0.06422   0.06423   0.06424   0.12536   0.12637
     Eigenvalues ---    0.12672   0.16000   0.16000   0.16000   0.16000
     Eigenvalues ---    0.16000   0.16000   0.16000   0.16000   0.16000
     Eigenvalues ---    0.16000   0.16000   0.16000   0.54648   0.54648
     Eigenvalues ---    0.54653   0.54653   0.54655   0.54655   0.54663
     Eigenvalues ---    0.54663   0.54666   0.54666   0.54672   0.54672
     Eigenvalues --- 1000.000001000.000001000.000001000.000001000.00000
     Eigenvalues --- 1000.000001000.000001000.000001000.000001000.00000
     Eigenvalues --- 1000.000001000.000001000.000001000.000001000.00000
     Eigenvalues --- 1000.000001000.000001000.000001000.000001000.00000
     Eigenvalues --- 1000.000001000.000001000.000001000.000001000.00000
     Eigenvalues --- 1000.000001000.000001000.000001000.000001000.00000
     Eigenvalues --- 1000.000001000.000001000.000001000.000001000.00000
     Eigenvalues --- 1000.000001000.000001000.000001000.000001000.00000
     Eigenvalues --- 1000.000001000.000001000.000001000.000001000.00000
     Eigenvalues --- 1000.000001000.000001000.000001000.000001000.00000
     Eigenvalues --- 1000.000001000.000001000.000001000.000001000.00000
     Eigenvalues --- 1000.000001000.000001000.000001000.000001000.00000
     Eigenvalues --- 1000.000001000.000001000.000001000.000001000.00000
     Eigenvalues --- 1000.000001000.000001000.000001000.00000
 RFO step:  Lambda=-3.22856724D-05 EMin= 2.30000000D-03
 Linear search not attempted -- first point.
 Iteration  1 RMS(Cart)=  0.00218607 RMS(Int)=  0.00000918
 Iteration  2 RMS(Cart)=  0.00000711 RMS(Int)=  0.00000608
 Iteration  3 RMS(Cart)=  0.00000000 RMS(Int)=  0.00000608
 Iteration  1 RMS(Cart)=  0.00000000 RMS(Int)=  0.00000000
 ClnCor:  largest displacement from symmetrization is 3.01D-08 for atom    18.
 Variable       Old X    -DE/DX   Delta X   Delta X   Delta X     New X
                                 (Linear)    (Quad)   (Total)
    R1        4.91329  -0.02886   0.00000   0.00000   0.00000   4.91329
    R2        4.91329  -0.02886   0.00000   0.00000   0.00000   4.91329
    R3        4.91329  -0.02886   0.00000   0.00000   0.00000   4.91329
    R4        4.91329  -0.02886   0.00000   0.00000   0.00000   4.91329
    R5        4.91329  -0.02886   0.00000   0.00000   0.00000   4.91329
    R6        4.91329  -0.02886   0.00000   0.00000   0.00000   4.91329
    R7        1.82133  -0.00086   0.00000  -0.00157  -0.00157   1.81975
    R8        1.82140  -0.00088   0.00000  -0.00161  -0.00161   1.81979
    R9        1.82130  -0.00086   0.00000  -0.00157  -0.00157   1.81974
   R10        1.82142  -0.00088   0.00000  -0.00162  -0.00162   1.81980
   R11        1.82125  -0.00085   0.00000  -0.00155  -0.00155   1.81970
   R12        1.82146  -0.00090   0.00000  -0.00164  -0.00164   1.81982
   R13        1.82133  -0.00086   0.00000  -0.00157  -0.00157   1.81975
   R14        1.82140  -0.00088   0.00000  -0.00161  -0.00161   1.81979
   R15        1.82130  -0.00086   0.00000  -0.00157  -0.00157   1.81974
   R16        1.82142  -0.00088   0.00000  -0.00162  -0.00162   1.81980
   R17        1.82125  -0.00085   0.00000  -0.00155  -0.00155   1.81970
   R18        1.82146  -0.00090   0.00000  -0.00164  -0.00164   1.81982
    A1        1.57349   0.00001   0.00000   0.00005   0.00005   1.57354
    A2        1.56868   0.00000   0.00000  -0.00002  -0.00002   1.56866
    A3        1.56810  -0.00001   0.00000  -0.00005  -0.00005   1.56805
    A4        1.57291   0.00000   0.00000   0.00002   0.00002   1.57293
    A5        1.56622  -0.00001   0.00000  -0.00011  -0.00011   1.56611
    A6        1.56810  -0.00001   0.00000  -0.00005  -0.00005   1.56805
    A7        1.57537   0.00001   0.00000   0.00011   0.00011   1.57548
    A8        1.57291   0.00000   0.00000   0.00002   0.00002   1.57293
    A9        1.57537   0.00001   0.00000   0.00011   0.00011   1.57548
   A10        1.57349   0.00001   0.00000   0.00005   0.00005   1.57354
   A11        1.56868   0.00000   0.00000  -0.00002  -0.00002   1.56866
   A12        1.56622  -0.00001   0.00000  -0.00011  -0.00011   1.56611
   A13        2.20094  -0.00024   0.00000  -0.00151  -0.00152   2.19942
   A14        2.19757  -0.00021   0.00000  -0.00134  -0.00135   2.19622
   A15        1.88450   0.00044   0.00000   0.00273   0.00272   1.88722
   A16        2.20138  -0.00024   0.00000  -0.00165  -0.00167   2.19971
   A17        2.19683  -0.00020   0.00000  -0.00140  -0.00143   2.19540
   A18        1.88445   0.00045   0.00000   0.00265   0.00263   1.88708
   A19        2.20403  -0.00027   0.00000  -0.00172  -0.00173   2.20231
   A20        2.19447  -0.00016   0.00000  -0.00105  -0.00106   2.19342
   A21        1.88458   0.00044   0.00000   0.00270   0.00270   1.88727
   A22        2.20094  -0.00024   0.00000  -0.00151  -0.00152   2.19942
   A23        2.19757  -0.00021   0.00000  -0.00134  -0.00135   2.19622
   A24        1.88450   0.00044   0.00000   0.00273   0.00272   1.88722
   A25        2.20138  -0.00024   0.00000  -0.00165  -0.00167   2.19971
   A26        2.19683  -0.00020   0.00000  -0.00140  -0.00143   2.19540
   A27        1.88445   0.00045   0.00000   0.00265   0.00263   1.88708
   A28        2.20403  -0.00027   0.00000  -0.00172  -0.00173   2.20231
   A29        2.19447  -0.00016   0.00000  -0.00105  -0.00106   2.19342
   A30        1.88458   0.00044   0.00000   0.00270   0.00270   1.88727
   A31        3.14159   0.00000   0.00000   0.00000   0.00000   3.14159
   A32        3.14159   0.00000   0.00000   0.00000   0.00000   3.14159
   A33        3.14159   0.00000   0.00000   0.00000   0.00000   3.14159
   A34        3.14159   0.00000   0.00000   0.00000   0.00000   3.14159
   A35        3.14159   0.00000   0.00000   0.00000   0.00000   3.14159
   A36        3.14159   0.00000   0.00000   0.00000   0.00000   3.14159
    D1       -1.57003   0.00000   0.00000   0.00262   0.00262  -1.56741
    D2        1.54870  -0.00002   0.00000  -0.00550  -0.00550   1.54320
    D3       -3.13624   0.00001   0.00000   0.00273   0.00273  -3.13351
    D4       -0.01751  -0.00001   0.00000  -0.00539  -0.00539  -0.02290
    D5        1.57157   0.00000   0.00000   0.00262   0.00262   1.57418
    D6       -1.59289  -0.00002   0.00000  -0.00550  -0.00550  -1.59839
    D7        0.00535   0.00001   0.00000   0.00273   0.00273   0.00808
    D8        3.12408  -0.00001   0.00000  -0.00539  -0.00539   3.11869
    D9        3.14159   0.00000   0.00000   0.00000   0.00000   3.14159
   D10        0.02286   0.00002   0.00000   0.00812   0.00812   0.03098
   D11       -0.02286  -0.00002   0.00000  -0.00812  -0.00812  -0.03098
   D12        3.14159   0.00000   0.00000   0.00000   0.00000   3.14159
   D13        0.01844   0.00002   0.00000   0.00676   0.00676   0.02521
   D14        3.12096  -0.00002   0.00000  -0.00785  -0.00785   3.11311
   D15        1.58712   0.00001   0.00000   0.00674   0.00674   1.59385
   D16       -1.59355  -0.00002   0.00000  -0.00788  -0.00788  -1.60143
   D17       -3.12315   0.00002   0.00000   0.00676   0.00676  -3.11639
   D18       -0.02063  -0.00002   0.00000  -0.00785  -0.00785  -0.02848
   D19       -1.55448   0.00001   0.00000   0.00674   0.00674  -1.54774
   D20        1.54804  -0.00002   0.00000  -0.00788  -0.00788   1.54016
   D21        3.14159   0.00000   0.00000   0.00000   0.00000   3.14159
   D22        0.03908   0.00003   0.00000   0.01462   0.01462   0.05369
   D23       -0.03908  -0.00003   0.00000  -0.01462  -0.01462  -0.05369
   D24        3.14159   0.00000   0.00000   0.00000   0.00000   3.14159
   D25       -1.57317   0.00000   0.00000  -0.00215  -0.00215  -1.57531
   D26        1.58580   0.00001   0.00000   0.00402   0.00402   1.58982
   D27        3.13652  -0.00001   0.00000  -0.00220  -0.00220   3.13432
   D28        0.01230   0.00001   0.00000   0.00397   0.00397   0.01628
   D29        1.56843   0.00000   0.00000  -0.00215  -0.00215   1.56628
   D30       -1.55579   0.00001   0.00000   0.00402   0.00402  -1.55177
   D31       -0.00507  -0.00001   0.00000  -0.00220  -0.00220  -0.00727
   D32       -3.12929   0.00001   0.00000   0.00397   0.00397  -3.12532
   D33        3.14159   0.00000   0.00000   0.00000   0.00000   3.14159
   D34       -0.01738  -0.00001   0.00000  -0.00617  -0.00617  -0.02354
   D35        0.01738   0.00001   0.00000   0.00617   0.00617   0.02354
   D36        3.14159   0.00000   0.00000   0.00000   0.00000   3.14159
   D37       -1.57157   0.00000   0.00000  -0.00262  -0.00262  -1.57418
   D38        1.59289   0.00002   0.00000   0.00550   0.00550   1.59839
[...]
    10  H    0.000092  -0.000056   0.000054   0.000090   0.000068  -0.000010
    11  O    0.293379  -0.001657  -0.000215  -0.000055  -0.010329   0.000251
    12  H   -0.007241  -0.000157   0.000029   0.000053  -0.000537   0.000077
    13  H    0.391145  -0.000046  -0.000054   0.000090   0.003927  -0.000126
    14  O   -0.000046   7.771727   0.289719   0.293367  -0.010464  -0.000544
    15  H   -0.000054   0.289719   0.393831  -0.007186   0.000256   0.000077
    16  H    0.000090   0.293367  -0.007186   0.391194   0.000244   0.000195
    17  O    0.003927  -0.010464   0.000256   0.000244   7.771306   0.289937
    18  H   -0.000126  -0.000544   0.000077   0.000195   0.289937   0.393736
    19  H    0.000050   0.003970  -0.000126   0.000053   0.293404  -0.007209
              19
     1  Ni  -0.008930
     2  O   -0.000045
     3  H   -0.000056
     4  H    0.000092
     5  O   -0.000056
     6  H    0.000054
     7  H    0.000090
     8  O    0.000068
     9  H   -0.000010
    10  H    0.000032
    11  O    0.000239
    12  H    0.000192
    13  H    0.000050
    14  O    0.003970
    15  H   -0.000126
    16  H    0.000053
    17  O    0.293404
    18  H   -0.007209
    19  H    0.391213
          Atomic-Atomic Spin Densities.
               1          2          3          4          5          6
     1  Ni   1.938444  -0.011266   0.001018   0.001007  -0.011250   0.001015
     2  O   -0.011266   0.031056  -0.000443   0.000319  -0.000573  -0.000041
     3  H    0.001018  -0.000443   0.000787   0.000097   0.000027  -0.000015
     4  H    0.001007   0.000319   0.000097  -0.000316   0.000036  -0.000004
     5  O   -0.011250  -0.000573   0.000027   0.000036   0.031006  -0.000444
     6  H    0.001015  -0.000041  -0.000015  -0.000004  -0.000444   0.000799
     7  H    0.001013   0.000049  -0.000007  -0.000002   0.000341   0.000094
     8  O   -0.011281  -0.001195   0.000051   0.000140  -0.001204   0.000106
     9  H    0.001019   0.000106  -0.000022  -0.000035   0.000051  -0.000022
    10  H    0.001011   0.000080  -0.000012  -0.000018   0.000143  -0.000036
    11  O   -0.011266   0.000165  -0.000002  -0.000006  -0.001212   0.000052
    12  H    0.001018  -0.000002  -0.000004   0.000000   0.000107  -0.000022
    13  H    0.001007  -0.000006   0.000000  -0.000003   0.000081  -0.000012
    14  O   -0.011250  -0.001212   0.000107   0.000081   0.000164  -0.000002
    15  H    0.001015   0.000052  -0.000022  -0.000012  -0.000002  -0.000004
    16  H    0.001013   0.000146  -0.000037  -0.000019  -0.000006   0.000000
    17  O   -0.011281  -0.000573  -0.000041   0.000049  -0.000574   0.000028
    18  H    0.001019   0.000028  -0.000015  -0.000007  -0.000041  -0.000015
    19  H    0.001011   0.000037  -0.000004  -0.000003   0.000049  -0.000007
               7          8          9         10         11         12
     1  Ni   0.001013  -0.011281   0.001019   0.001011  -0.011266   0.001018
     2  O    0.000049  -0.001195   0.000106   0.000080   0.000165  -0.000002
     3  H   -0.000007   0.000051  -0.000022  -0.000012  -0.000002  -0.000004
     4  H   -0.000002   0.000140  -0.000035  -0.000018  -0.000006   0.000000
     5  O    0.000341  -0.001204   0.000051   0.000143  -0.001212   0.000107
     6  H    0.000094   0.000106  -0.000022  -0.000036   0.000052  -0.000022
     7  H   -0.000333   0.000081  -0.000012  -0.000018   0.000146  -0.000037
     8  O    0.000081   0.031084  -0.000456   0.000324  -0.000573  -0.000041
     9  H   -0.000012  -0.000456   0.000803   0.000099   0.000028  -0.000015
    10  H   -0.000018   0.000324   0.000099  -0.000324   0.000037  -0.000004
    11  O    0.000146  -0.000573   0.000028   0.000037   0.031056  -0.000443
    12  H   -0.000037  -0.000041  -0.000015  -0.000004  -0.000443   0.000787
    13  H   -0.000019   0.000049  -0.000007  -0.000003   0.000319   0.000097
    14  O   -0.000006  -0.000574  -0.000041   0.000049  -0.000573   0.000027
    15  H    0.000000   0.000028  -0.000015  -0.000007  -0.000041  -0.000015
    16  H   -0.000003   0.000036  -0.000004  -0.000002   0.000049  -0.000007
    17  O    0.000036   0.000164  -0.000002  -0.000006  -0.001195   0.000051
    18  H   -0.000004  -0.000002  -0.000004   0.000000   0.000106  -0.000022
    19  H   -0.000002  -0.000006   0.000000  -0.000003   0.000080  -0.000012
              13         14         15         16         17         18
     1  Ni   0.001007  -0.011250   0.001015   0.001013  -0.011281   0.001019
     2  O   -0.000006  -0.001212   0.000052   0.000146  -0.000573   0.000028
     3  H    0.000000   0.000107  -0.000022  -0.000037  -0.000041  -0.000015
     4  H   -0.000003   0.000081  -0.000012  -0.000019   0.000049  -0.000007
     5  O    0.000081   0.000164  -0.000002  -0.000006  -0.000574  -0.000041
     6  H   -0.000012  -0.000002  -0.000004   0.000000   0.000028  -0.000015
     7  H   -0.000019  -0.000006   0.000000  -0.000003   0.000036  -0.000004
     8  O    0.000049  -0.000574   0.000028   0.000036   0.000164  -0.000002
     9  H   -0.000007  -0.000041  -0.000015  -0.000004  -0.000002  -0.000004
    10  H   -0.000003   0.000049  -0.000007  -0.000002  -0.000006   0.000000
    11  O    0.000319  -0.000573  -0.000041   0.000049  -0.001195   0.000106
    12  H    0.000097   0.000027  -0.000015  -0.000007   0.000051  -0.000022
    13  H   -0.000316   0.000036  -0.000004  -0.000002   0.000140  -0.000035
    14  O    0.000036   0.031006  -0.000444   0.000341  -0.001204   0.000051
    15  H   -0.000004  -0.000444   0.000799   0.000094   0.000106  -0.000022
    16  H   -0.000002   0.000341   0.000094  -0.000333   0.000081  -0.000012
    17  O    0.000140  -0.001204   0.000106   0.000081   0.031084  -0.000456
    18  H   -0.000035   0.000051  -0.000022  -0.000012  -0.000456   0.000803
    19  H   -0.000018   0.000143  -0.000036  -0.000018   0.000324   0.000099
              19
     1  Ni   0.001011
     2  O    0.000037
     3  H   -0.000004
     4  H   -0.000003
     5  O    0.000049
     6  H   -0.000007
     7  H   -0.000002
     8  O   -0.000006
     9  H    0.000000
    10  H   -0.000003
    11  O    0.000080
    12  H   -0.000012
    13  H   -0.000018
    14  O    0.000143
    15  H   -0.000036
    16  H   -0.000018
    17  O    0.000324
    18  H    0.000099
    19  H   -0.000324
 Mulliken charges and spin densities:
               1          2
     1  Ni   0.853775   1.883015
     2  O   -0.464111   0.016724
     3  H    0.327933   0.001464
     4  H    0.327123   0.001306
     5  O   -0.463853   0.016698
     6  H    0.327920   0.001470
     7  H    0.327053   0.001316
     8  O   -0.463801   0.016732
     9  H    0.327874   0.001470
    10  H    0.326975   0.001312
    11  O   -0.464111   0.016724
    12  H    0.327933   0.001464
    13  H    0.327123   0.001306
    14  O   -0.463853   0.016698
    15  H    0.327920   0.001470
    16  H    0.327053   0.001316
    17  O   -0.463801   0.016732
    18  H    0.327874   0.001470
    19  H    0.326975   0.001312
 Sum of Mulliken charges =   2.00000   2.00000
 Mulliken charges and spin densities with hydrogens summed into heavy atoms:
               1          2
     1  Ni   0.853775   1.883015
     2  O    0.190944   0.019494
     5  O    0.191120   0.019485
     8  O    0.191048   0.019514
    11  O    0.190944   0.019494
    14  O    0.191120   0.019485
    17  O    0.191048   0.019514
 Electronic spatial extent (au):  <R**2>=           1619.6648
 Charge=              2.0000 electrons
 Dipole moment (field-independent basis, Debye):
    X=              0.0000    Y=              0.0000    Z=              0.0000  Tot=              0.0000
 Quadrupole moment (field-independent basis, Debye-Ang):
   XX=            -11.8519   YY=            -11.8998   ZZ=            -11.8998
   XY=             -0.5816   XZ=              0.6925   YZ=              0.6500
 Traceless Quadrupole moment (field-independent basis, Debye-Ang):
   XX=              0.0320   YY=             -0.0160   ZZ=             -0.0160
   XY=             -0.5816   XZ=              0.6925   YZ=              0.6500
 Octapole moment (field-independent basis, Debye-Ang**2):
  XXX=              0.0000  YYY=              0.0000  ZZZ=              0.0000  XYY=              0.0000
  XXY=              0.0000  XXZ=              0.0000  XZZ=              0.0000  YZZ=              0.0000
  YYZ=              0.0000  XYZ=              0.0000
 Hexadecapole moment (field-independent basis, Debye-Ang**3):
 XXXX=           -133.7384 YYYY=           -131.3788 ZZZZ=           -132.6428 XXXY=             45.4153
 XXXZ=            -50.5068 YYYX=             48.2535 YYYZ=            -44.0380 ZZZX=            -43.4404
 ZZZY=            -50.8605 XXYY=           -160.0066 XXZZ=           -160.1944 YYZZ=           -159.7075
 XXYZ=            -17.3386 YYXZ=            -17.2159 ZZXY=             16.8178
 N-N= 5.829162726766D+02 E-N=-5.819617833335D+03  KE= 1.962454504332D+03
 Symmetry AG   KE= 1.230000086955D+03
 Symmetry AU   KE= 7.324544173772D+02
                          Isotropic Fermi Contact Couplings
        Atom                 a.u.       MegaHertz       Gauss      10(-4) cm-1
     1  Ni(61)            -1.13506     227.08610      81.02997      75.74777
     2  O(17)              0.03438     -10.42065      -3.71835      -3.47595
     3  H(1)               0.00006       0.13537       0.04830       0.04515
     4  H(1)              -0.00006      -0.13931      -0.04971      -0.04647
     5  O(17)              0.03441     -10.42980      -3.72161      -3.47901
     6  H(1)               0.00006       0.14099       0.05031       0.04703
     7  H(1)              -0.00006      -0.14022      -0.05004      -0.04677
     8  O(17)              0.03449     -10.45310      -3.72992      -3.48678
     9  H(1)               0.00007       0.14536       0.05187       0.04849
    10  H(1)              -0.00006      -0.13621      -0.04860      -0.04543
    11  O(17)              0.03438     -10.42065      -3.71835      -3.47595
    12  H(1)               0.00006       0.13537       0.04830       0.04515
    13  H(1)              -0.00006      -0.13931      -0.04971      -0.04647
    14  O(17)              0.03441     -10.42980      -3.72161      -3.47901
    15  H(1)               0.00006       0.14099       0.05031       0.04703
    16  H(1)              -0.00006      -0.14022      -0.05004      -0.04677
    17  O(17)              0.03449     -10.45310      -3.72992      -3.48678
    18  H(1)               0.00007       0.14536       0.05187       0.04849
    19  H(1)              -0.00006      -0.13621      -0.04860      -0.04543
 --------------------------------------------------------
       Center         ----  Spin Dipole Couplings  ----
                      3XX-RR        3YY-RR        3ZZ-RR
 --------------------------------------------------------
     1   Atom        0.003677     -0.004056      0.000379
     2   Atom        0.092300     -0.057796     -0.034504
     3   Atom        0.016661     -0.006528     -0.010133
     4   Atom        0.014624     -0.003135     -0.011489
     5   Atom       -0.057372     -0.034456      0.091828
     6   Atom       -0.006658     -0.010109      0.016767
     7   Atom       -0.002915     -0.011513      0.014428
     8   Atom       -0.034098      0.091448     -0.057350
     9   Atom       -0.010125      0.016741     -0.006616
    10   Atom       -0.011477      0.014437     -0.002960
    11   Atom        0.092300     -0.057796     -0.034504
    12   Atom        0.016661     -0.006528     -0.010133
    13   Atom        0.014624     -0.003135     -0.011489
    14   Atom       -0.057372     -0.034456      0.091828
    15   Atom       -0.006658     -0.010109      0.016767
    16   Atom       -0.002915     -0.011513      0.014428
    17   Atom       -0.034098      0.091448     -0.057350
    18   Atom       -0.010125      0.016741     -0.006616
    19   Atom       -0.011477      0.014437     -0.002960
 --------------------------------------------------------
                        XY            XZ            YZ
 --------------------------------------------------------
     1   Atom       -0.250005      0.253840      0.255820
     2   Atom       -0.021480      0.055950     -0.008402
     3   Atom        0.006214      0.000540     -0.001536
     4   Atom       -0.010758      0.001660      0.001090
     5   Atom        0.008876      0.022766      0.055866
     6   Atom        0.001556     -0.005983      0.000494
     7   Atom       -0.001026      0.010920      0.001731
     8   Atom       -0.056286     -0.008993      0.022779
     9   Atom       -0.000673     -0.001501     -0.006026
    10   Atom       -0.001798      0.001022      0.010903
    11   Atom       -0.021480      0.055950     -0.008402
    12   Atom        0.006214      0.000540     -0.001536
    13   Atom       -0.010758      0.001660      0.001090
    14   Atom        0.008876      0.022766      0.055866
    15   Atom        0.001556     -0.005983      0.000494
    16   Atom       -0.001026      0.010920      0.001731
    17   Atom       -0.056286     -0.008993      0.022779
    18   Atom       -0.000673     -0.001501     -0.006026
    19   Atom       -0.001798      0.001022      0.010903
 --------------------------------------------------------


 ---------------------------------------------------------------------------------
              Anisotropic Spin Dipole Couplings in Principal Axis System
 ---------------------------------------------------------------------------------

       Atom             a.u.   MegaHertz   Gauss  10(-4) cm-1        Axes

              Baa    -0.5065    24.190     8.632     8.069  0.5726  0.5800 -0.5795
     1 Ni(61) Bbb     0.2497   -11.924    -4.255    -3.978 -0.6376  0.7593  0.1300
              Bcc     0.2568   -12.266    -4.377    -4.091  0.5154  0.2950  0.8045
 
              Baa    -0.0609     4.404     1.571     1.469  0.1049  0.9901  0.0930
     2 O(17)  Bbb    -0.0556     4.027     1.437     1.343 -0.3596 -0.0494  0.9318
              Bcc     0.1165    -8.430    -3.008    -2.812  0.9272 -0.1312  0.3508
 
              Baa    -0.0110    -5.884    -2.099    -1.963 -0.1219  0.4672  0.8757
     3 H(1)   Bbb    -0.0072    -3.838    -1.370    -1.280 -0.2105  0.8500 -0.4828
              Bcc     0.0182     9.722     3.469     3.243  0.9700  0.2432  0.0053
 
              Baa    -0.0122    -6.528    -2.329    -2.177 -0.1922 -0.3375  0.9215
     4 H(1)   Bbb    -0.0075    -3.998    -1.427    -1.334  0.3797  0.8403  0.3870
              Bcc     0.0197    10.526     3.756     3.511  0.9049 -0.4242  0.0333
 
              Baa    -0.0608     4.401     1.570     1.468  0.9893 -0.0909 -0.1143
     5 O(17)  Bbb    -0.0556     4.024     1.436     1.342  0.0441  0.9319 -0.3599
              Bcc     0.1164    -8.425    -3.006    -2.810  0.1392  0.3510  0.9260
 
              Baa    -0.0110    -5.878    -2.097    -1.961 -0.4727  0.8734 -0.1173
     6 H(1)   Bbb    -0.0072    -3.836    -1.369    -1.280  0.8496  0.4871  0.2022
              Bcc     0.0182     9.714     3.466     3.240 -0.2337  0.0041  0.9723
 
              Baa    -0.0122    -6.533    -2.331    -2.179  0.3298  0.9237 -0.1950
     7 H(1)   Bbb    -0.0075    -4.000    -1.427    -1.334  0.8391 -0.3814 -0.3878
              Bcc     0.0197    10.533     3.758     3.513  0.4326  0.0357  0.9009
 
              Baa    -0.0608     4.400     1.570     1.468  0.0958 -0.1126  0.9890
     8 O(17)  Bbb    -0.0556     4.025     1.436     1.343  0.9303  0.3636 -0.0487
              Bcc     0.1164    -8.425    -3.006    -2.810 -0.3541  0.9247  0.1395
 
              Baa    -0.0110    -5.879    -2.098    -1.961  0.8761  0.1225  0.4664
     9 H(1)   Bbb    -0.0072    -3.836    -1.369    -1.279 -0.4821  0.2012  0.8527
              Bcc     0.0182     9.715     3.466     3.240 -0.0106  0.9719 -0.2353
 
              Baa    -0.0122    -6.530    -2.330    -2.178  0.9208  0.1992 -0.3354
    10 H(1)   Bbb    -0.0075    -3.998    -1.426    -1.333  0.3883 -0.3846  0.8375
              Bcc     0.0197    10.528     3.756     3.512 -0.0378  0.9014  0.4314
 
              Baa    -0.0609     4.404     1.571     1.469  0.1049  0.9901  0.0930
    11 O(17)  Bbb    -0.0556     4.027     1.437     1.343 -0.3596 -0.0494  0.9318
              Bcc     0.1165    -8.430    -3.008    -2.812  0.9272 -0.1312  0.3508
 
              Baa    -0.0110    -5.884    -2.099    -1.963 -0.1219  0.4672  0.8757
    12 H(1)   Bbb    -0.0072    -3.838    -1.370    -1.280 -0.2105  0.8500 -0.4828
              Bcc     0.0182     9.722     3.469     3.243  0.9700  0.2432  0.0053
 
              Baa    -0.0122    -6.528    -2.329    -2.177 -0.1922 -0.3375  0.9215
    13 H(1)   Bbb    -0.0075    -3.998    -1.427    -1.334  0.3797  0.8403  0.3870
              Bcc     0.0197    10.526     3.756     3.511  0.9049 -0.4242  0.0333
 
              Baa    -0.0608     4.401     1.570     1.468  0.9893 -0.0909 -0.1143
    14 O(17)  Bbb    -0.0556     4.024     1.436     1.342  0.0441  0.9319 -0.3599
              Bcc     0.1164    -8.425    -3.006    -2.810  0.1392  0.3510  0.9260
 
              Baa    -0.0110    -5.878    -2.097    -1.961 -0.4727  0.8734 -0.1173
    15 H(1)   Bbb    -0.0072    -3.836    -1.369    -1.280  0.8496  0.4871  0.2022
              Bcc     0.0182     9.714     3.466     3.240 -0.2337  0.0041  0.9723
 
              Baa    -0.0122    -6.533    -2.331    -2.179  0.3298  0.9237 -0.1950
    16 H(1)   Bbb    -0.0075    -4.000    -1.427    -1.334  0.8391 -0.3814 -0.3878
              Bcc     0.0197    10.533     3.758     3.513  0.4326  0.0357  0.9009
 
              Baa    -0.0608     4.400     1.570     1.468  0.0958 -0.1126  0.9890
    17 O(17)  Bbb    -0.0556     4.025     1.436     1.343  0.9303  0.3636 -0.0487
              Bcc     0.1164    -8.425    -3.006    -2.810 -0.3541  0.9247  0.1395
 
              Baa    -0.0110    -5.879    -2.098    -1.961  0.8761  0.1225  0.4664
    18 H(1)   Bbb    -0.0072    -3.836    -1.369    -1.279 -0.4821  0.2012  0.8527
              Bcc     0.0182     9.715     3.466     3.240 -0.0106  0.9719 -0.2353
 
              Baa    -0.0122    -6.530    -2.330    -2.178  0.9208  0.1992 -0.3354
    19 H(1)   Bbb    -0.0075    -3.998    -1.426    -1.333  0.3883 -0.3846  0.8375
              Bcc     0.0197    10.528     3.756     3.512 -0.0378  0.9014  0.4314
 

 ---------------------------------------------------------------------------------

 1\1\GINC-MN45\FOpt\UM062X\6-311++G(2d,2p)\H12Ni1O6(2+,3)\DARAM_A\01-Se
 p-2015\0\\# opt=modredundant 6-311++g(2d,2p) geom=connectivity m062x o
 utput=wfnx\\Ni23_26\\2,3\Ni,0.,0.,0.\O,-2.5596876312,0.190631856,-0.41
 43172193\H,-3.214764346,-0.4702956083,-0.1614783364\H,-2.9234631015,1.
 0540196184,-0.1839268718\O,0.2124812062,0.4150988895,2.5578398357\H,-0
 .4397709829,0.1594658364,3.2204784381\H,1.08109684,0.189434647,2.91196
 72432\O,-0.4268350029,2.5560135929,0.2112022664\H,-0.1787878821,3.2186
 229219,-0.4439788788\H,-0.1981884868,2.9133666864,1.0777047605\O,2.559
 6876312,-0.190631856,0.4143172193\H,3.214764346,0.4702956083,0.1614783
 364\H,2.9234631015,-1.0540196184,0.1839268718\O,-0.2124812062,-0.41509
 88895,-2.5578398357\H,0.4397709829,-0.1594658364,-3.2204784381\H,-1.08
 109684,-0.189434647,-2.9119672432\O,0.4268350029,-2.5560135929,-0.2112
 022664\H,0.1787878821,-3.2186229219,0.4439788788\H,0.1981884868,-2.913
 3666864,-1.0777047605\\Version=ES64L-G09RevD.01\State=3-AG\HF=-1966.22
 73167\S2=2.004443\S2-1=0.\S2A=2.000013\RMSD=7.310e-09\RMSF=9.285e-03\D
 ipole=0.,0.,0.\Quadrupole=0.0237571,-0.0118829,-0.0118742,-0.4324053,0
 .5148334,0.4832958\PG=CI [O(Ni1),X(H12O6)]\\@

 Writing a WFNX file to "Ni23_26.wfx"


 The hours that make us happy make us wise.
                         -- John Masefield
 Job cpu time:       0 days  7 hours  1 minutes 40.5 seconds.
 File lengths (MBytes):  RWF=     95 Int=      0 D2E=      0 Chk=     12 Scr=      1
 Normal termination of Gaussian 09 at Tue Sep  1 15:17:59 2015.
