 Entering Gaussian System, Link 0=g09
 Input=Ni23_24.com
 Output=Ni23_24.log
 Initial command:
 /opt/SC/aplicaciones/g09-D.01/l1.exe "/tmpu/fercor_g/daram_a/Gau-12122.inp" -scrdir="/tmpu/fercor_g/daram_a/"
 Entering Link 1 = /opt/SC/aplicaciones/g09-D.01/l1.exe PID=     12123.
  
 Copyright (c) 1988,1990,1992,1993,1995,1998,2003,2009,2013,
            Gaussian, Inc.  All Rights Reserved.
  
 This is part of the Gaussian(R) 09 program.  It is based on
 the Gaussian(R) 03 system (copyright 2003, Gaussian, Inc.),
 the Gaussian(R) 98 system (copyright 1998, Gaussian, Inc.),
 the Gaussian(R) 94 system (copyright 1995, Gaussian, Inc.),
 the Gaussian 92(TM) system (copyright 1992, Gaussian, Inc.),
 the Gaussian 90(TM) system (copyright 1990, Gaussian, Inc.),
 the Gaussian 88(TM) system (copyright 1988, Gaussian, Inc.),
 the Gaussian 86(TM) system (copyright 1986, Carnegie Mellon
 University), and the Gaussian 82(TM) system (copyright 1983,
 Carnegie Mellon University). Gaussian is a federally registered
 trademark of Gaussian, Inc.
  
 This software contains proprietary and confidential information,
 including trade secrets, belonging to Gaussian, Inc.
  
 This software is provided under written license and may be
 used, copied, transmitted, or stored only in accord with that
 written license.
  
 The following legend is applicable only to US Government
 contracts under FAR:
  
                    RESTRICTED RIGHTS LEGEND
  
 Use, reproduction and disclosure by the US Government is
 subject to restrictions as set forth in subparagraphs (a)
 and (c) of the Commercial Computer Software - Restricted
 Rights clause in FAR 52.227-19.
  
 Gaussian, Inc.
 340 Quinnipiac St., Bldg. 40, Wallingford CT 06492
  
  
 ---------------------------------------------------------------
 Warning -- This program may not be used in any manner that
 competes with the business of Gaussian, Inc. or will provide
 assistance to any competitor of Gaussian, Inc.  The licensee
 of this program is prohibited from giving any competitor of
 Gaussian, Inc. access to this program.  By using this program,
 the user acknowledges that Gaussian, Inc. is engaged in the
 business of creating and licensing software in the field of
 computational chemistry and represents and warrants to the
 licensee that it is not a competitor of Gaussian, Inc. and that
 it will not use this program in any manner prohibited above.
 ---------------------------------------------------------------
  

 Cite this work as:
 Gaussian 09, Revision D.01,
 M. J. Frisch, G. W. Trucks, H. B. Schlegel, G. E. Scuseria, 
 M. A. Robb, J. R. Cheeseman, G. Scalmani, V. Barone, B. Mennucci, 
 G. A. Petersson, H. Nakatsuji, M. Caricato, X. Li, H. P. Hratchian, 
 A. F. Izmaylov, J. Bloino, G. Zheng, J. L. Sonnenberg, M. Hada, 
 M. Ehara, K. Toyota, R. Fukuda, J. Hasegawa, M. Ishida, T. Nakajima, 
 Y. Honda, O. Kitao, H. Nakai, T. Vreven, J. A. Montgomery, Jr., 
 J. E. Peralta, F. Ogliaro, M. Bearpark, J. J. Heyd, E. Brothers, 
 K. N. Kudin, V. N. Staroverov, T. Keith, R. Kobayashi, J. Normand, 
 K. Raghavachari, A. Rendell, J. C. Burant, S. S. Iyengar, J. Tomasi, 
 M. Cossi, N. Rega, J. M. Millam, M. Klene, J. E. Knox, J. B. Cross, 
 V. Bakken, C. Adamo, J. Jaramillo, R. Gomperts, R. E. Stratmann, 
 O. Yazyev, A. J. Austin, R. Cammi, C. Pomelli, J. W. Ochterski, 
 R. L. Martin, K. Morokuma, V. G. Zakrzewski, G. A. Voth, 
 P. Salvador, J. J. Dannenberg, S. Dapprich, A. D. Daniels, 
 O. Farkas, J. B. Foresman, J. V. Ortiz, J. Cioslowski, 
 and D. J. Fox, Gaussian, Inc., Wallingford CT, 2013.
 
 ******************************************
 Gaussian 09:  ES64L-G09RevD.01 24-Apr-2013
                 1-Sep-2015 
 ******************************************
 %nprocshared=16
 Will use up to   16 processors via shared memory.
 %mem=32GB
 %chk=Ni23_24.chk
 ----------------------------------------------------------------------
 # opt=modredundant 6-311++g(2d,2p) geom=check m062x output=wfnx nosymm
 ----------------------------------------------------------------------
 1/14=-1,18=120,19=15,26=3,29=2,38=1/1,3;
 2/9=110,12=2,15=1,40=1/2;
 3/5=4,6=6,7=1212,11=2,14=-4,16=1,25=1,30=1,71=1,74=-55/1,2,3;
 4//1;
 5/5=2,38=5/2;
 6/7=2,8=2,9=2,10=2,28=1/1;
 7/30=1/1,2,3,16;
 1/14=-1,18=20,19=15,26=3/3(2);
 2/9=110,15=1/2;
 99/6=200/99;
 2/9=110,15=1/2;
 3/5=4,6=6,7=1212,11=2,14=-2,16=1,25=1,30=1,71=1,74=-55/1,2,3;
 4/5=5,16=3,69=1/1;
 5/5=2,38=5/2;
 7/30=1/1,2,3,16;
 1/14=-1,18=20,19=15,26=3/3(-5);
 2/9=110,15=1/2;
 6/7=2,8=2,9=2,10=2,19=2,28=1/1;
 99/6=200,9=1/99;
 -------
 Ni23_24
 -------
 Structure from the checkpoint file:  "Ni23_24.chk"
 Charge =  2 Multiplicity = 3
 Redundant internal coordinates found in file.
 Ni,0,0.,0.,0.
 O,0,-2.3997966407,0.0138699042,0.0279953151
 H,0,-2.9662749358,-0.7649869137,0.0127870709
 H,0,-2.9598238534,0.7974725117,0.0334196149
 O,0,0.0179468623,-0.0449669192,2.3995115906
 H,0,-0.7601835117,-0.0342209108,2.9663277234
 H,0,0.8075787986,-0.0433253205,2.9626331566
 O,0,0.0217097162,2.3997051748,0.0307208672
 H,0,0.0099999296,2.9703890287,-0.7450831614
 H,0,0.0253696056,2.9555000287,0.8173548676
 O,0,2.3997966407,-0.0138699042,-0.0279953151
 H,0,2.9662749358,0.7649869137,-0.0127870709
 H,0,2.9598238534,-0.7974725117,-0.0334196149
 O,0,-0.0179468623,0.0449669192,-2.3995115906
 H,0,0.7601835117,0.0342209108,-2.9663277234
 H,0,-0.8075787986,0.0433253205,-2.9626331566
 O,0,-0.0217097162,-2.3997051748,-0.0307208672
 H,0,-0.0099999296,-2.9703890287,0.7450831614
 H,0,-0.0253696056,-2.9555000287,-0.8173548676
 Recover connectivity data from disk.
 The following ModRedundant input section has been read:
 B       1       8 F                                                           
 B       1      14 F                                                           
 B       1      11 F                                                           
 B       1       2 F                                                           
 B       1       5 F                                                           
 B       1      17 F                                                           
 

 GradGradGradGradGradGradGradGradGradGradGradGradGradGradGradGradGradGrad
 Berny optimization.
 Initialization pass.
                           ----------------------------
                           !    Initial Parameters    !
                           ! (Angstroms and Degrees)  !
 --------------------------                            --------------------------
 ! Name  Definition              Value          Derivative Info.                !
 --------------------------------------------------------------------------------
 ! R1    R(1,2)                  2.4            Frozen                          !
 ! R2    R(1,5)                  2.4            Frozen                          !
 ! R3    R(1,8)                  2.4            Frozen                          !
 ! R4    R(1,11)                 2.4            Frozen                          !
 ! R5    R(1,14)                 2.4            Frozen                          !
 ! R6    R(1,17)                 2.4            Frozen                          !
 ! R7    R(2,3)                  0.9632         estimate D2E/DX2                !
 ! R8    R(2,4)                  0.9632         estimate D2E/DX2                !
 ! R9    R(5,6)                  0.9627         estimate D2E/DX2                !
 ! R10   R(5,7)                  0.9699         estimate D2E/DX2                !
 ! R11   R(8,9)                  0.9632         estimate D2E/DX2                !
 ! R12   R(8,10)                 0.9632         estimate D2E/DX2                !
 ! R13   R(11,12)                0.9632         estimate D2E/DX2                !
 ! R14   R(11,13)                0.9632         estimate D2E/DX2                !
 ! R15   R(14,15)                0.9627         estimate D2E/DX2                !
 ! R16   R(14,16)                0.9699         estimate D2E/DX2                !
 ! R17   R(17,18)                0.9632         estimate D2E/DX2                !
 ! R18   R(17,19)                0.9632         estimate D2E/DX2                !
 ! A1    A(2,1,5)               89.7664         estimate D2E/DX2                !
 ! A2    A(2,1,8)               90.1786         estimate D2E/DX2                !
 ! A3    A(2,1,14)              90.2336         estimate D2E/DX2                !
 ! A4    A(2,1,17)              89.8214         estimate D2E/DX2                !
 ! A5    A(5,1,8)               90.3362         estimate D2E/DX2                !
 ! A6    A(5,1,11)              90.2336         estimate D2E/DX2                !
 ! A7    A(5,1,17)              89.6638         estimate D2E/DX2                !
 ! A8    A(8,1,11)              89.8214         estimate D2E/DX2                !
 ! A9    A(8,1,14)              89.6638         estimate D2E/DX2                !
 ! A10   A(11,1,14)             89.7664         estimate D2E/DX2                !
 ! A11   A(11,1,17)             90.1786         estimate D2E/DX2                !
 ! A12   A(14,1,17)             90.3362         estimate D2E/DX2                !
 ! A13   A(1,2,3)              125.6771         estimate D2E/DX2                !
 ! A14   A(1,2,4)              125.885          estimate D2E/DX2                !
 ! A15   A(3,2,4)              108.4208         estimate D2E/DX2                !
 ! A16   A(1,5,6)              125.6178         estimate D2E/DX2                !
 ! A17   A(1,5,7)              125.9133         estimate D2E/DX2                !
 ! A18   A(6,5,7)              108.4324         estimate D2E/DX2                !
 ! A19   A(1,8,9)              125.5924         estimate D2E/DX2                !
 ! A20   A(1,8,10)             125.9769         estimate D2E/DX2                !
 ! A21   A(9,8,10)             108.4199         estimate D2E/DX2                !
 ! A22   A(1,11,12)            125.6771         estimate D2E/DX2                !
 ! A23   A(1,11,13)            125.885          estimate D2E/DX2                !
 ! A24   A(12,11,13)           108.4208         estimate D2E/DX2                !
 ! A25   A(1,14,15)            125.6178         estimate D2E/DX2                !
 ! A26   A(1,14,16)            125.9133         estimate D2E/DX2                !
 ! A27   A(15,14,16)           108.4324         estimate D2E/DX2                !
 ! A28   A(1,17,18)            125.5924         estimate D2E/DX2                !
 ! A29   A(1,17,19)            125.9769         estimate D2E/DX2                !
 ! A30   A(18,17,19)           108.4199         estimate D2E/DX2                !
 ! A31   L(2,1,11,5,-1)        180.0            estimate D2E/DX2                !
 ! A32   L(5,1,14,2,-1)        180.0            estimate D2E/DX2                !
 ! A33   L(8,1,17,2,-1)        180.0            estimate D2E/DX2                !
 ! A34   L(2,1,11,5,-2)        180.0            estimate D2E/DX2                !
 ! A35   L(5,1,14,2,-2)        180.0            estimate D2E/DX2                !
 ! A36   L(8,1,17,2,-2)        180.0            estimate D2E/DX2                !
 ! D1    D(5,1,2,3)            -90.5228         estimate D2E/DX2                !
 ! D2    D(5,1,2,4)             91.1564         estimate D2E/DX2                !
 ! D3    D(8,1,2,3)            179.1417         estimate D2E/DX2                !
 ! D4    D(8,1,2,4)              0.8208         estimate D2E/DX2                !
 ! D5    D(14,1,2,3)            89.4772         estimate D2E/DX2                !
 ! D6    D(14,1,2,4)           -88.8436         estimate D2E/DX2                !
 ! D7    D(17,1,2,3)            -0.8583         estimate D2E/DX2                !
 ! D8    D(17,1,2,4)          -179.1792         estimate D2E/DX2                !
 ! D9    D(3,2,11,12)          180.0            estimate D2E/DX2                !
 ! D10   D(3,2,11,13)           -1.6791         estimate D2E/DX2                !
 ! D11   D(4,2,11,12)            1.6791         estimate D2E/DX2                !
 ! D12   D(4,2,11,13)          180.0            estimate D2E/DX2                !
 ! D13   D(2,1,5,6)             -1.2207         estimate D2E/DX2                !
 ! D14   D(2,1,5,7)           -178.767          estimate D2E/DX2                !
 ! D15   D(8,1,5,6)             88.9566         estimate D2E/DX2                !
 ! D16   D(8,1,5,7)            -88.5898         estimate D2E/DX2                !
 ! D17   D(11,1,5,6)           178.7793         estimate D2E/DX2                !
 ! D18   D(11,1,5,7)             1.233          estimate D2E/DX2                !
 ! D19   D(17,1,5,6)           -91.0434         estimate D2E/DX2                !
 ! D20   D(17,1,5,7)            91.4102         estimate D2E/DX2                !
 ! D21   D(6,5,14,15)          180.0            estimate D2E/DX2                !
 ! D22   D(6,5,14,16)           -2.4536         estimate D2E/DX2                !
 ! D23   D(7,5,14,15)            2.4536         estimate D2E/DX2                !
 ! D24   D(7,5,14,16)          180.0            estimate D2E/DX2                !
 ! D25   D(2,1,8,9)            -89.4364         estimate D2E/DX2                !
 ! D26   D(2,1,8,10)            89.2287         estimate D2E/DX2                !
 ! D27   D(5,1,8,9)           -179.2038         estimate D2E/DX2                !
 ! D28   D(5,1,8,10)            -0.5387         estimate D2E/DX2                !
 ! D29   D(11,1,8,9)            90.5636         estimate D2E/DX2                !
 ! D30   D(11,1,8,10)          -90.7713         estimate D2E/DX2                !
 ! D31   D(14,1,8,9)             0.7962         estimate D2E/DX2                !
 ! D32   D(14,1,8,10)          179.4613         estimate D2E/DX2                !
 ! D33   D(9,8,17,18)          180.0            estimate D2E/DX2                !
 ! D34   D(9,8,17,19)            1.3349         estimate D2E/DX2                !
 ! D35   D(10,8,17,18)          -1.3349         estimate D2E/DX2                !
 ! D36   D(10,8,17,19)         180.0            estimate D2E/DX2                !
 ! D37   D(5,1,11,12)          -89.4772         estimate D2E/DX2                !
 ! D38   D(5,1,11,13)           88.8436         estimate D2E/DX2                !
 ! D39   D(8,1,11,12)            0.8583         estimate D2E/DX2                !
 ! D40   D(8,1,11,13)          179.1792         estimate D2E/DX2                !
 ! D41   D(14,1,11,12)          90.5228         estimate D2E/DX2                !
 ! D42   D(14,1,11,13)         -91.1564         estimate D2E/DX2                !
 ! D43   D(17,1,11,12)        -179.1417         estimate D2E/DX2                !
 ! D44   D(17,1,11,13)          -0.8208         estimate D2E/DX2                !
 ! D45   D(2,1,14,15)         -178.7793         estimate D2E/DX2                !
 ! D46   D(2,1,14,16)           -1.233          estimate D2E/DX2                !
 ! D47   D(8,1,14,15)           91.0434         estimate D2E/DX2                !
 ! D48   D(8,1,14,16)          -91.4102         estimate D2E/DX2                !
 ! D49   D(11,1,14,15)           1.2207         estimate D2E/DX2                !
 ! D50   D(11,1,14,16)         178.767          estimate D2E/DX2                !
 ! D51   D(17,1,14,15)         -88.9566         estimate D2E/DX2                !
 ! D52   D(17,1,14,16)          88.5898         estimate D2E/DX2                !
 ! D53   D(2,1,17,18)          -90.5636         estimate D2E/DX2                !
 ! D54   D(2,1,17,19)           90.7713         estimate D2E/DX2                !
 ! D55   D(5,1,17,18)           -0.7962         estimate D2E/DX2                !
 ! D56   D(5,1,17,19)         -179.4613         estimate D2E/DX2                !
 ! D57   D(11,1,17,18)          89.4364         estimate D2E/DX2                !
 ! D58   D(11,1,17,19)         -89.2287         estimate D2E/DX2                !
 ! D59   D(14,1,17,18)         179.2038         estimate D2E/DX2                !
 ! D60   D(14,1,17,19)           0.5387         estimate D2E/DX2                !
 --------------------------------------------------------------------------------
 Trust Radius=3.00D-01 FncErr=1.00D-07 GrdErr=1.00D-06
 Number of steps in this run=    114 maximum allowed number of steps=    114.
 GradGradGradGradGradGradGradGradGradGradGradGradGradGradGradGradGradGrad

                          Input orientation:                          
 ---------------------------------------------------------------------
 Center     Atomic      Atomic             Coordinates (Angstroms)
 Number     Number       Type             X           Y           Z
 ---------------------------------------------------------------------
      1         28           0        0.000000    0.000000    0.000000
      2          8           0       -2.399797    0.013870    0.027995
      3          1           0       -2.966275   -0.764987    0.012787
      4          1           0       -2.959824    0.797473    0.033420
      5          8           0        0.017947   -0.044967    2.399512
      6          1           0       -0.760184   -0.034221    2.966328
      7          1           0        0.807579   -0.043325    2.962633
      8          8           0        0.021710    2.399705    0.030721
      9          1           0        0.010000    2.970389   -0.745083
     10          1           0        0.025370    2.955500    0.817355
     11          8           0        2.399797   -0.013870   -0.027995
     12          1           0        2.966275    0.764987   -0.012787
     13          1           0        2.959824   -0.797473   -0.033420
     14          8           0       -0.017947    0.044967   -2.399512
     15          1           0        0.760184    0.034221   -2.966328
     16          1           0       -0.807579    0.043325   -2.962633
     17          8           0       -0.021710   -2.399705   -0.030721
     18          1           0       -0.010000   -2.970389    0.745083
     19          1           0       -0.025370   -2.955500   -0.817355
 ---------------------------------------------------------------------
                    Distance matrix (angstroms):
                    1          2          3          4          5
     1  Ni   0.000000
     2  O    2.400000   0.000000
     3  H    3.063357   0.963196   0.000000
     4  H    3.065556   0.963168   1.562609   0.000000
     5  O    2.400000   3.387187   3.888504   3.895538   0.000000
     6  H    3.062377   3.365181   3.758226   3.759266   0.962748
     7  H    3.071035   4.347715   4.844002   4.845674   0.969859
     8  O    2.400000   3.399399   4.352430   3.384775   3.404057
     9  H    3.062427   3.891757   4.835867   3.761314   4.356709
    10  H    3.066544   3.893290   4.841414   3.766035   3.392061
    11  O    2.400000   4.800000   5.418539   5.421031   3.401024
    12  H    3.063357   5.418539   6.126714   5.926368   3.894592
    13  H    3.065556   5.421031   5.926368   6.131113   3.891023
    14  O    2.400000   3.401024   3.894592   3.891023   4.800000
    15  H    3.062377   4.353373   4.837391   4.839369   5.417510
    16  H    3.071035   3.388198   3.763836   3.765266   5.426038
    17  O    2.400000   3.388818   3.368184   4.342646   3.384139
    18  H    3.062427   3.889877   3.760268   4.837841   3.360954
    19  H    3.066544   3.894827   3.759841   4.839384   4.338353
                    6          7          8          9         10
     6  H    0.000000
     7  H    1.567793   0.000000
     8  O    3.892704   3.896421   0.000000
     9  H    4.836883   4.844148   0.963166   0.000000
    10  H    3.764785   3.769221   0.963179   1.562585   0.000000
    11  O    4.353373   3.388198   3.388818   3.889877   3.894827
    12  H    4.837391   3.763836   3.368184   3.760268   3.759841
    13  H    4.839369   3.765266   4.342646   4.837841   4.839384
    14  O    5.417510   5.426038   3.384139   3.360954   4.338353
    15  H    6.124753   5.929657   3.888851   3.757364   4.836329
    16  H    5.929657   6.142070   3.898771   3.762136   4.843849
    17  O    3.888851   3.898771   4.800000   5.417493   5.422146
    18  H    3.757364   3.762136   5.417493   6.124854   5.926435
    19  H    4.836329   4.843849   5.422146   5.926435   6.133088
                   11         12         13         14         15
    11  O    0.000000
    12  H    0.963196   0.000000
    13  H    0.963168   1.562609   0.000000
    14  O    3.387187   3.888504   3.895538   0.000000
    15  H    3.365181   3.758226   3.759266   0.962748   0.000000
    16  H    4.347715   4.844002   4.845674   0.969859   1.567793
    17  O    3.399399   4.352430   3.384775   3.404057   3.892704
    18  H    3.891757   4.835867   3.761314   4.356709   4.836883
    19  H    3.893290   4.841414   3.766035   3.392061   3.764785
                   16         17         18         19
    16  H    0.000000
    17  O    3.896421   0.000000
    18  H    4.844148   0.963166   0.000000
    19  H    3.769221   0.963179   1.562585   0.000000
 Symmetry turned off by external request.
 Stoichiometry    H12NiO6(2+,3)
 Framework group  CI[O(Ni),X(H12O6)]
 Deg. of freedom    24
 Full point group                 CI      NOp   2
 Rotational constants (GHZ):      1.1417209      1.1362128      1.1346960
 Standard basis: 6-311++G(2d,2p) (5D, 7F)
   347 basis functions,   500 primitive gaussians,   369 cartesian basis functions
    44 alpha electrons       42 beta electrons
       nuclear repulsion energy       619.2210289611 Hartrees.
 NAtoms=   19 NActive=   19 NUniq=   19 SFac= 1.00D+00 NAtFMM=   60 NAOKFM=F Big=F
 Integral buffers will be    131072 words long.
 Raffenetti 2 integral format.
 Two-electron integral symmetry is turned off.
 One-electron integrals computed using PRISM.
 NBasis=   347 RedAO= T EigKep=  1.70D-04  NBF=   347
 NBsUse=   347 1.00D-06 EigRej= -1.00D+00 NBFU=   347
 ExpMin= 1.39D-02 ExpMax= 2.85D+05 ExpMxC= 9.63D+03 IAcc=3 IRadAn=         5 AccDes= 0.00D+00
 Harris functional with IExCor= 1009 and IRadAn=       5 diagonalized for initial guess.
 HarFok:  IExCor= 1009 AccDes= 0.00D+00 IRadAn=         5 IDoV= 1 UseB2=F ITyADJ=14
 ICtDFT=  3500011 ScaDFX=  1.000000  1.000000  1.000000  1.000000
 FoFCou: FMM=F IPFlag=           0 FMFlag=      100000 FMFlg1=           0
         NFxFlg=           0 DoJE=T BraDBF=F KetDBF=T FulRan=T
         wScrn=  0.000000 ICntrl=     500 IOpCl=  0 I1Cent=   200000004 NGrid=           0
         NMat0=    1 NMatS0=      1 NMatT0=    0 NMatD0=    1 NMtDS0=    0 NMtDT0=    0
 Symmetry not used in FoFCou.
 Initial guess <Sx>= 0.0000 <Sy>= 0.0000 <Sz>= 1.0000 <S**2>= 2.0000 S= 1.0000
 Keep R1 and R2 ints in memory in canonical form, NReq=3671324766.
 Requested convergence on RMS density matrix=1.00D-08 within 128 cycles.
 Requested convergence on MAX density matrix=1.00D-06.
 Requested convergence on             energy=1.00D-06.
 No special actions if energy rises.
 SCF Done:  E(UM062X) =  -1966.29092619     A.U. after   20 cycles
            NFock= 20  Conv=0.20D-08     -V/T= 2.0019
 <Sx>= 0.0000 <Sy>= 0.0000 <Sz>= 1.0000 <S**2>= 2.0038 S= 1.0013
 <L.S>= 0.000000000000E+00
 Annihilation of the first spin contaminant:
 S**2 before annihilation     2.0038,   after     2.0000

 **********************************************************************

            Population analysis using the SCF density.

 **********************************************************************

 Alpha  occ. eigenvalues -- -302.27896 -36.88379 -32.32338 -32.32333 -32.32331
 Alpha  occ. eigenvalues --  -19.94968 -19.94968 -19.94937 -19.94937 -19.94934
 Alpha  occ. eigenvalues --  -19.94934  -4.76784  -3.34899  -3.34891  -3.34887
 Alpha  occ. eigenvalues --   -1.45361  -1.45136  -1.45132  -1.45042  -1.44991
 Alpha  occ. eigenvalues --   -1.44936  -0.96011  -0.96006  -0.93545  -0.93542
 Alpha  occ. eigenvalues --   -0.93424  -0.93178  -0.93174  -0.93031  -0.91206
 Alpha  occ. eigenvalues --   -0.91204  -0.91178  -0.85119  -0.81668  -0.81625
 Alpha  occ. eigenvalues --   -0.81568  -0.78716  -0.78682  -0.72264  -0.72246
 Alpha  occ. eigenvalues --   -0.72194  -0.72163  -0.72161  -0.72126
 Alpha virt. eigenvalues --   -0.32054  -0.24597  -0.24563  -0.24529  -0.22831
 Alpha virt. eigenvalues --   -0.20748  -0.20723  -0.18645  -0.18634  -0.18603
 Alpha virt. eigenvalues --   -0.16803  -0.16759  -0.16753  -0.14364  -0.14339
 Alpha virt. eigenvalues --   -0.14259  -0.11878  -0.08410  -0.08370  -0.07938
 Alpha virt. eigenvalues --   -0.07928  -0.07923  -0.07628  -0.07504  -0.07470
 Alpha virt. eigenvalues --   -0.05311  -0.05066  -0.04994  -0.04982  -0.02441
 Alpha virt. eigenvalues --   -0.02404  -0.02384  -0.02192  -0.02122  -0.02117
 Alpha virt. eigenvalues --   -0.01885  -0.01876  -0.00237  -0.00183  -0.00177
 Alpha virt. eigenvalues --    0.01476   0.01616   0.01633   0.01662   0.04418
 Alpha virt. eigenvalues --    0.04423   0.04424   0.07371   0.14095   0.14108
 Alpha virt. eigenvalues --    0.15303   0.15422   0.15436   0.17569   0.17576
 Alpha virt. eigenvalues --    0.17597   0.18701   0.19279   0.19425   0.20983
 Alpha virt. eigenvalues --    0.31000   0.31149   0.31331   0.31343   0.31374
 Alpha virt. eigenvalues --    0.32498   0.32706   0.32744   0.34975   0.35129
 Alpha virt. eigenvalues --    0.35166   0.37616   0.37691   0.37999   0.41246
 Alpha virt. eigenvalues --    0.41652   0.41691   0.43965   0.44031   0.44151
 Alpha virt. eigenvalues --    0.58856   0.59180   0.59236   0.60004   0.60034
 Alpha virt. eigenvalues --    0.61602   0.62410   0.62452   0.62496   0.63004
 Alpha virt. eigenvalues --    0.63049   0.63357   0.66479   0.66670   0.66757
 Alpha virt. eigenvalues --    0.67569   0.67746   0.67840   0.73909   0.74037
 Alpha virt. eigenvalues --    0.74079   0.78671   0.78713   0.78818   0.82676
 Alpha virt. eigenvalues --    0.84876   0.85008   0.85064   0.87984   0.88023
 Alpha virt. eigenvalues --    0.88173   0.96969   0.97083   0.97312   0.97467
 Alpha virt. eigenvalues --    0.98008   1.09812   1.09877   1.13092   1.13302
 Alpha virt. eigenvalues --    1.13328   1.18322   1.18718   1.18808   1.18893
 Alpha virt. eigenvalues --    1.20409   1.20705   1.20775   1.32966   1.33059
 Alpha virt. eigenvalues --    1.33374   1.38140   1.38382   1.38767   1.39121
 Alpha virt. eigenvalues --    1.39249   1.39363   1.45988   1.46125   1.46172
 Alpha virt. eigenvalues --    1.50550   1.50806   1.50944   1.51067   1.51222
 Alpha virt. eigenvalues --    1.51336   1.52643   1.52731   1.57399   1.57529
 Alpha virt. eigenvalues --    1.57639   1.60023   1.60718   1.61670   1.61712
 Alpha virt. eigenvalues --    1.61769   1.63413   1.63431   1.63442   1.73143
 Alpha virt. eigenvalues --    1.73502   1.73582   1.76481   1.76569   1.98181
 Alpha virt. eigenvalues --    1.98433   1.98642   2.02219   2.03429   2.03510
 Alpha virt. eigenvalues --    2.05588   2.05776   2.05814   2.08765   2.08953
 Alpha virt. eigenvalues --    2.09542   2.22437   2.22524   2.22676   2.27489
 Alpha virt. eigenvalues --    2.27696   2.27756   2.27997   2.33555   2.33702
 Alpha virt. eigenvalues --    2.59134   2.59551   2.59617   2.60832   2.61255
 Alpha virt. eigenvalues --    2.61300   3.32369   3.42760   3.43113   3.43122
 Alpha virt. eigenvalues --    3.44509   3.44804   3.44861   3.52145   3.52357
 Alpha virt. eigenvalues --    3.52422   3.53440   3.53479   3.53512   3.55260
 Alpha virt. eigenvalues --    3.55272   3.55330   3.56794   3.56836   3.56854
 Alpha virt. eigenvalues --    3.81429   3.81903   3.81950   3.82904   3.83449
 Alpha virt. eigenvalues --    3.83541   3.83669   3.83811   3.85059   3.85616
 Alpha virt. eigenvalues --    3.86189   3.86225   3.95484   3.96188   3.96210
 Alpha virt. eigenvalues --    3.96672   3.97168   4.00047   4.86192   4.86386
 Alpha virt. eigenvalues --    4.86435   4.88596   4.88627   4.88844   5.42273
 Alpha virt. eigenvalues --    5.42683   5.42949   5.45548   5.45819   5.47719
 Alpha virt. eigenvalues --    5.95694   5.96143   5.96564   5.96567   5.96979
 Alpha virt. eigenvalues --    5.96990   6.42138   6.42157   6.45800   6.45830
 Alpha virt. eigenvalues --    6.45885   6.53025   6.53500   6.53601   6.54348
 Alpha virt. eigenvalues --    6.54447   6.54605   6.55748   6.55849   6.55884
 Alpha virt. eigenvalues --    6.62061   6.62078   6.62202   6.62264   6.62293
 Alpha virt. eigenvalues --    6.62437   6.66596   6.83537   6.83632   6.85052
 Alpha virt. eigenvalues --    6.86919   6.86946   6.86960   6.94547   6.94960
 Alpha virt. eigenvalues --    6.95020   6.97899   6.98322   6.98388   7.06534
 Alpha virt. eigenvalues --    7.06709   7.06721   7.13184   7.13334   7.13665
 Alpha virt. eigenvalues --    7.13711   7.13831   7.13839   8.59357   8.59489
 Alpha virt. eigenvalues --    8.60006  29.65387  36.16260  36.16362  36.16761
 Alpha virt. eigenvalues --   49.72497  49.72682  49.72693  49.72953  49.72987
 Alpha virt. eigenvalues --   49.74427 162.12332 844.58964
  Beta  occ. eigenvalues -- -302.28017 -36.81896 -32.27061 -32.27061 -32.27061
  Beta  occ. eigenvalues --  -19.94898 -19.94898 -19.94868 -19.94868 -19.94865
  Beta  occ. eigenvalues --  -19.94865  -4.67082  -3.21799  -3.21798  -3.21795
  Beta  occ. eigenvalues --   -1.45228  -1.44997  -1.44993  -1.44892  -1.44852
  Beta  occ. eigenvalues --   -1.44785  -0.93187  -0.93184  -0.93111  -0.93107
  Beta  occ. eigenvalues --   -0.93042  -0.92963  -0.84901  -0.84557  -0.84556
  Beta  occ. eigenvalues --   -0.84553  -0.81328  -0.81281  -0.81224  -0.80650
  Beta  occ. eigenvalues --   -0.80613  -0.72155  -0.72137  -0.72081  -0.71987
  Beta  occ. eigenvalues --   -0.71984  -0.71950
  Beta virt. eigenvalues --   -0.36356  -0.36354  -0.31317  -0.24575  -0.24541
  Beta virt. eigenvalues --   -0.24508  -0.22277  -0.20613  -0.20589  -0.18633
  Beta virt. eigenvalues --   -0.18622  -0.18591  -0.16786  -0.16742  -0.16735
  Beta virt. eigenvalues --   -0.14202  -0.14176  -0.14096  -0.11805  -0.08368
  Beta virt. eigenvalues --   -0.08328  -0.07800  -0.07791  -0.07786  -0.07566
  Beta virt. eigenvalues --   -0.07442  -0.07408  -0.05188  -0.05060  -0.04983
  Beta virt. eigenvalues --   -0.04971  -0.02422  -0.02387  -0.02366  -0.02133
  Beta virt. eigenvalues --   -0.02059  -0.02052  -0.01843  -0.01834  -0.00105
  Beta virt. eigenvalues --   -0.00056  -0.00049   0.01491   0.01629   0.01645
  Beta virt. eigenvalues --    0.01674   0.04375   0.04381   0.04382   0.07354
  Beta virt. eigenvalues --    0.14088   0.14101   0.15448   0.15560   0.15577
  Beta virt. eigenvalues --    0.17571   0.17577   0.17598   0.18757   0.19336
  Beta virt. eigenvalues --    0.19482   0.21002   0.31086   0.31221   0.31398
  Beta virt. eigenvalues --    0.32036   0.32075   0.32505   0.32714   0.32751
  Beta virt. eigenvalues --    0.34998   0.35153   0.35190   0.38008   0.38973
  Beta virt. eigenvalues --    0.39022   0.41235   0.41640   0.41679   0.43955
  Beta virt. eigenvalues --    0.44021   0.44138   0.58998   0.59322   0.59379
  Beta virt. eigenvalues --    0.60493   0.60527   0.61775   0.62396   0.62446
  Beta virt. eigenvalues --    0.62483   0.62994   0.63037   0.63341   0.66508
  Beta virt. eigenvalues --    0.66699   0.66786   0.67565   0.67746   0.67840
  Beta virt. eigenvalues --    0.73868   0.73996   0.74038   0.78554   0.78600
  Beta virt. eigenvalues --    0.78717   0.82739   0.84834   0.84962   0.85018
  Beta virt. eigenvalues --    0.88073   0.88111   0.88259   0.97088   0.97210
  Beta virt. eigenvalues --    0.97386   0.97545   0.98094   1.09861   1.09919
  Beta virt. eigenvalues --    1.12909   1.13116   1.13141   1.18288   1.18679
  Beta virt. eigenvalues --    1.18810   1.18895   1.20429   1.20725   1.20795
  Beta virt. eigenvalues --    1.32932   1.33025   1.33342   1.38857   1.38971
  Beta virt. eigenvalues --    1.39136   1.40385   1.40468   1.40556   1.46463
  Beta virt. eigenvalues --    1.46602   1.46644   1.50637   1.50891   1.51052
  Beta virt. eigenvalues --    1.51137   1.52658   1.52744   1.54389   1.54495
  Beta virt. eigenvalues --    1.58374   1.58506   1.58564   1.60271   1.60840
  Beta virt. eigenvalues --    1.62130   1.62179   1.62217   1.64575   1.64600
  Beta virt. eigenvalues --    1.64610   1.75168   1.75465   1.75535   1.79372
  Beta virt. eigenvalues --    1.79440   1.98646   1.98917   1.99137   2.02247
  Beta virt. eigenvalues --    2.03550   2.03627   2.06271   2.06468   2.06504
  Beta virt. eigenvalues --    2.08829   2.09018   2.09612   2.22995   2.23078
  Beta virt. eigenvalues --    2.23223   2.27538   2.27744   2.27809   2.28028
  Beta virt. eigenvalues --    2.33610   2.33757   2.59146   2.59563   2.59628
  Beta virt. eigenvalues --    2.60870   2.61293   2.61337   3.37629   3.42766
  Beta virt. eigenvalues --    3.43119   3.43129   3.44517   3.44811   3.44868
  Beta virt. eigenvalues --    3.52148   3.52360   3.52425   3.53439   3.53479
  Beta virt. eigenvalues --    3.53512   3.55281   3.55293   3.55350   3.56800
  Beta virt. eigenvalues --    3.56841   3.56859   3.81495   3.81970   3.82017
  Beta virt. eigenvalues --    3.82965   3.83520   3.83592   3.83724   3.83882
  Beta virt. eigenvalues --    3.85669   3.85820   3.86242   3.86278   3.95520
  Beta virt. eigenvalues --    3.96224   3.96246   3.96741   3.97233   4.00402
  Beta virt. eigenvalues --    4.86325   4.86515   4.86563   4.88704   4.88735
  Beta virt. eigenvalues --    4.88952   5.42601   5.43011   5.43274   5.45858
  Beta virt. eigenvalues --    5.46131   5.48034   5.95744   5.96194   5.96613
  Beta virt. eigenvalues --    5.96616   5.97028   5.97039   6.49523   6.49545
  Beta virt. eigenvalues --    6.49572   6.52941   6.52972   6.53358   6.53805
  Beta virt. eigenvalues --    6.53899   6.54510   6.54620   6.54740   6.55869
  Beta virt. eigenvalues --    6.55951   6.55982   6.63084   6.63250   6.63270
  Beta virt. eigenvalues --    6.63935   6.64054   6.64253   6.66716   6.89897
  Beta virt. eigenvalues --    6.91718   6.91857   6.92880   6.92988   6.92999
  Beta virt. eigenvalues --    6.95768   6.96106   6.96177   6.98167   6.99359
  Beta virt. eigenvalues --    6.99535   7.13074   7.13392   7.13478   7.13497
  Beta virt. eigenvalues --    7.13974   7.13983   7.14054   7.14295   7.14327
  Beta virt. eigenvalues --    8.67560   8.67692   8.68203  29.77354  36.25236
  Beta virt. eigenvalues --   36.25340  36.25747  49.72468  49.72653  49.72663
  Beta virt. eigenvalues --   49.72924  49.72958  49.74398 162.12211 844.58510
          Condensed to atoms (all electrons):
               1          2          3          4          5          6
     1  Ni  26.763440   0.159693  -0.012030  -0.011725   0.159644  -0.012172
     2  O    0.159693   7.727502   0.287125   0.287142  -0.011683   0.001654
     3  H   -0.012030   0.287125   0.389085  -0.007836   0.000347  -0.000387
     4  H   -0.011725   0.287142  -0.007836   0.389159   0.000311  -0.000380
     5  O    0.159644  -0.011683   0.000347   0.000311   7.731234   0.286865
     6  H   -0.012172   0.001654  -0.000387  -0.000380   0.286865   0.389187
     7  H   -0.011252   0.000088   0.000030   0.000029   0.286254  -0.007891
     8  O    0.159701  -0.011218   0.000120   0.001558  -0.011006   0.000311
     9  H   -0.012186   0.000320   0.000035  -0.000383   0.000128   0.000035
    10  H   -0.011621   0.000291   0.000031  -0.000388   0.001520  -0.000384
    11  O    0.159693   0.001488   0.000043   0.000043  -0.011051   0.000121
    12  H   -0.012030   0.000043   0.000006  -0.000094   0.000301   0.000034
    13  H   -0.011725   0.000043  -0.000094   0.000006   0.000295   0.000031
    14  O    0.159644  -0.011051   0.000301   0.000295   0.001505   0.000046
    15  H   -0.012172   0.000121   0.000034   0.000031   0.000046   0.000005
    16  H   -0.011252   0.001482  -0.000386  -0.000395   0.000039  -0.000095
    17  O    0.159701  -0.011650   0.001631   0.000103  -0.011822   0.000355
    18  H   -0.012186   0.000348  -0.000386   0.000033   0.001663  -0.000388
    19  H   -0.011621   0.000303  -0.000385   0.000031   0.000096   0.000033
               7          8          9         10         11         12
     1  Ni  -0.011252   0.159701  -0.012186  -0.011621   0.159693  -0.012030
     2  O    0.000088  -0.011218   0.000320   0.000291   0.001488   0.000043
     3  H    0.000030   0.000120   0.000035   0.000031   0.000043   0.000006
     4  H    0.000029   0.001558  -0.000383  -0.000388   0.000043  -0.000094
     5  O    0.286254  -0.011006   0.000128   0.001520  -0.011051   0.000301
     6  H   -0.007891   0.000311   0.000035  -0.000384   0.000121   0.000034
     7  H    0.387097   0.000284   0.000030  -0.000386   0.001482  -0.000386
     8  O    0.000284   7.727526   0.287098   0.287095  -0.011650   0.001631
     9  H    0.000030   0.287098   0.389084  -0.007822   0.000348  -0.000386
    10  H   -0.000386   0.287095  -0.007822   0.389255   0.000303  -0.000385
    11  O    0.001482  -0.011650   0.000348   0.000303   7.727502   0.287125
    12  H   -0.000386   0.001631  -0.000386  -0.000385   0.287125   0.389085
    13  H   -0.000395   0.000103   0.000033   0.000031   0.287142  -0.007836
    14  O    0.000039  -0.011822   0.001663   0.000096  -0.011683   0.000347
    15  H   -0.000095   0.000355  -0.000388   0.000033   0.001654  -0.000387
    16  H    0.000007   0.000311  -0.000381   0.000029   0.000088   0.000030
    17  O    0.000311   0.001489   0.000044   0.000043  -0.011218   0.000120
    18  H   -0.000381   0.000044   0.000006  -0.000095   0.000320   0.000035
    19  H    0.000029   0.000043  -0.000095   0.000006   0.000291   0.000031
              13         14         15         16         17         18
     1  Ni  -0.011725   0.159644  -0.012172  -0.011252   0.159701  -0.012186
     2  O    0.000043  -0.011051   0.000121   0.001482  -0.011650   0.000348
     3  H   -0.000094   0.000301   0.000034  -0.000386   0.001631  -0.000386
     4  H    0.000006   0.000295   0.000031  -0.000395   0.000103   0.000033
     5  O    0.000295   0.001505   0.000046   0.000039  -0.011822   0.001663
     6  H    0.000031   0.000046   0.000005  -0.000095   0.000355  -0.000388
     7  H   -0.000395   0.000039  -0.000095   0.000007   0.000311  -0.000381
     8  O    0.000103  -0.011822   0.000355   0.000311   0.001489   0.000044
     9  H    0.000033   0.001663  -0.000388  -0.000381   0.000044   0.000006
    10  H    0.000031   0.000096   0.000033   0.000029   0.000043  -0.000095
    11  O    0.287142  -0.011683   0.001654   0.000088  -0.011218   0.000320
    12  H   -0.007836   0.000347  -0.000387   0.000030   0.000120   0.000035
    13  H    0.389159   0.000311  -0.000380   0.000029   0.001558  -0.000383
    14  O    0.000311   7.731234   0.286865   0.286254  -0.011006   0.000128
    15  H   -0.000380   0.286865   0.389187  -0.007891   0.000311   0.000035
    16  H    0.000029   0.286254  -0.007891   0.387097   0.000284   0.000030
    17  O    0.001558  -0.011006   0.000311   0.000284   7.727526   0.287098
    18  H   -0.000383   0.000128   0.000035   0.000030   0.287098   0.389084
    19  H   -0.000388   0.001520  -0.000384  -0.000386   0.287095  -0.007822
              19
     1  Ni  -0.011621
     2  O    0.000303
     3  H   -0.000385
     4  H    0.000031
     5  O    0.000096
     6  H    0.000033
     7  H    0.000029
     8  O    0.000043
     9  H   -0.000095
    10  H    0.000006
    11  O    0.000291
    12  H    0.000031
    13  H   -0.000388
    14  O    0.001520
    15  H   -0.000384
    16  H   -0.000386
    17  O    0.287095
    18  H   -0.007822
    19  H    0.389255
          Atomic-Atomic Spin Densities.
               1          2          3          4          5          6
     1  Ni   1.949869  -0.013650   0.001019   0.001020  -0.013687   0.001030
     2  O   -0.013650   0.035863  -0.001547  -0.001543  -0.001124   0.000071
     3  H    0.001019  -0.001547   0.001854   0.000773   0.000040   0.000009
     4  H    0.001020  -0.001543   0.000773   0.001867   0.000042   0.000008
     5  O   -0.013687  -0.001124   0.000040   0.000042   0.035926  -0.001531
     6  H    0.001030   0.000071   0.000009   0.000008  -0.001531   0.001840
     7  H    0.001014   0.000053   0.000000   0.000000  -0.001552   0.000767
     8  O   -0.013662  -0.001109   0.000055   0.000064  -0.001102   0.000038
     9  H    0.001021   0.000038   0.000000   0.000009   0.000055   0.000000
    10  H    0.001024   0.000039   0.000000   0.000008   0.000061   0.000009
    11  O   -0.013650   0.000230  -0.000007  -0.000007  -0.001108   0.000055
    12  H    0.001019  -0.000007   0.000000   0.000007   0.000039   0.000000
    13  H    0.001020  -0.000007   0.000007   0.000000   0.000039   0.000000
    14  O   -0.013687  -0.001108   0.000039   0.000039   0.000232  -0.000007
    15  H    0.001030   0.000055   0.000000   0.000000  -0.000007   0.000000
    16  H    0.001014   0.000065   0.000008   0.000008  -0.000007   0.000007
    17  O   -0.013662  -0.001122   0.000070   0.000054  -0.001126   0.000040
    18  H    0.001021   0.000039   0.000009   0.000000   0.000072   0.000009
    19  H    0.001024   0.000041   0.000008   0.000000   0.000053   0.000000
               7          8          9         10         11         12
     1  Ni   0.001014  -0.013662   0.001021   0.001024  -0.013650   0.001019
     2  O    0.000053  -0.001109   0.000038   0.000039   0.000230  -0.000007
     3  H    0.000000   0.000055   0.000000   0.000000  -0.000007   0.000000
     4  H    0.000000   0.000064   0.000009   0.000008  -0.000007   0.000007
     5  O   -0.001552  -0.001102   0.000055   0.000061  -0.001108   0.000039
     6  H    0.000767   0.000038   0.000000   0.000009   0.000055   0.000000
     7  H    0.001889   0.000039   0.000000   0.000008   0.000065   0.000008
     8  O    0.000039   0.035869  -0.001551  -0.001540  -0.001122   0.000070
     9  H    0.000000  -0.001551   0.001851   0.000772   0.000039   0.000009
    10  H    0.000008  -0.001540   0.000772   0.001871   0.000041   0.000008
    11  O    0.000065  -0.001122   0.000039   0.000041   0.035863  -0.001547
    12  H    0.000008   0.000070   0.000009   0.000008  -0.001547   0.001854
    13  H    0.000008   0.000054   0.000000   0.000000  -0.001543   0.000773
    14  O   -0.000007  -0.001126   0.000072   0.000053  -0.001124   0.000040
    15  H    0.000007   0.000040   0.000009   0.000000   0.000071   0.000009
    16  H    0.000000   0.000042   0.000008   0.000000   0.000053   0.000000
    17  O    0.000042   0.000230  -0.000007  -0.000007  -0.001109   0.000055
    18  H    0.000008  -0.000007   0.000000   0.000007   0.000038   0.000000
    19  H    0.000000  -0.000007   0.000007   0.000000   0.000039   0.000000
              13         14         15         16         17         18
     1  Ni   0.001020  -0.013687   0.001030   0.001014  -0.013662   0.001021
     2  O   -0.000007  -0.001108   0.000055   0.000065  -0.001122   0.000039
     3  H    0.000007   0.000039   0.000000   0.000008   0.000070   0.000009
     4  H    0.000000   0.000039   0.000000   0.000008   0.000054   0.000000
     5  O    0.000039   0.000232  -0.000007  -0.000007  -0.001126   0.000072
     6  H    0.000000  -0.000007   0.000000   0.000007   0.000040   0.000009
     7  H    0.000008  -0.000007   0.000007   0.000000   0.000042   0.000008
     8  O    0.000054  -0.001126   0.000040   0.000042   0.000230  -0.000007
     9  H    0.000000   0.000072   0.000009   0.000008  -0.000007   0.000000
    10  H    0.000000   0.000053   0.000000   0.000000  -0.000007   0.000007
    11  O   -0.001543  -0.001124   0.000071   0.000053  -0.001109   0.000038
    12  H    0.000773   0.000040   0.000009   0.000000   0.000055   0.000000
    13  H    0.001867   0.000042   0.000008   0.000000   0.000064   0.000009
    14  O    0.000042   0.035926  -0.001531  -0.001552  -0.001102   0.000055
    15  H    0.000008  -0.001531   0.001840   0.000767   0.000038   0.000000
    16  H    0.000000  -0.001552   0.000767   0.001889   0.000039   0.000000
    17  O    0.000064  -0.001102   0.000038   0.000039   0.035869  -0.001551
    18  H    0.000009   0.000055   0.000000   0.000000  -0.001551   0.001851
    19  H    0.000008   0.000061   0.000009   0.000008  -0.001540   0.000772
              19
     1  Ni   0.001024
     2  O    0.000041
     3  H    0.000008
     4  H    0.000000
     5  O    0.000053
     6  H    0.000000
     7  H    0.000000
     8  O   -0.000007
     9  H    0.000007
    10  H    0.000000
    11  O    0.000039
    12  H    0.000000
    13  H    0.000008
    14  O    0.000061
    15  H    0.000009
    16  H    0.000008
    17  O   -0.001540
    18  H    0.000772
    19  H    0.001871
 Mulliken charges and spin densities:
               1          2
     1  Ni   0.420456   1.880129
     2  O   -0.422040   0.015275
     3  H    0.342718   0.002339
     4  H    0.342459   0.002349
     5  O   -0.424687   0.015315
     6  H    0.343020   0.002346
     7  H    0.345106   0.002349
     8  O   -0.421973   0.015273
     9  H    0.342819   0.002335
    10  H    0.342350   0.002354
    11  O   -0.422040   0.015275
    12  H    0.342718   0.002339
    13  H    0.342459   0.002349
    14  O   -0.424687   0.015315
    15  H    0.343020   0.002346
    16  H    0.345106   0.002349
    17  O   -0.421973   0.015273
    18  H    0.342819   0.002335
    19  H    0.342350   0.002354
 Sum of Mulliken charges =   2.00000   2.00000
 Mulliken charges and spin densities with hydrogens summed into heavy atoms:
               1          2
     1  Ni   0.420456   1.880129
     2  O    0.263137   0.019963
     5  O    0.263439   0.020010
     8  O    0.263196   0.019962
    11  O    0.263137   0.019963
    14  O    0.263439   0.020010
    17  O    0.263196   0.019962
 Electronic spatial extent (au):  <R**2>=           1414.4954
 Charge=              2.0000 electrons
 Dipole moment (field-independent basis, Debye):
    X=              0.0000    Y=              0.0000    Z=              0.0000  Tot=              0.0000
 Quadrupole moment (field-independent basis, Debye-Ang):
   XX=            -11.0027   YY=            -11.0474   ZZ=            -10.9592
   XY=             -0.0980   XZ=              0.2173   YZ=              0.1759
 Traceless Quadrupole moment (field-independent basis, Debye-Ang):
   XX=              0.0004   YY=             -0.0443   ZZ=              0.0439
   XY=             -0.0980   XZ=              0.2173   YZ=              0.1759
 Octapole moment (field-independent basis, Debye-Ang**2):
  XXX=              0.0000  YYY=              0.0000  ZZZ=              0.0000  XYY=              0.0000
  XXY=              0.0000  XXZ=              0.0000  XZZ=              0.0000  YZZ=              0.0000
  YYZ=              0.0000  XYZ=              0.0000
 Hexadecapole moment (field-independent basis, Debye-Ang**3):
 XXXX=            -92.6734 YYYY=            -92.7988 ZZZZ=            -91.8999 XXXY=             -2.4946
 XXXZ=             -0.5137 YYYX=              0.4052 YYYZ=              5.2472 ZZZX=              4.2494
 ZZZY=             -1.3831 XXYY=           -130.6382 XXZZ=           -130.2894 YYZZ=           -130.6958
 XXYZ=              0.4119 YYXZ=              0.3841 ZZXY=             -0.2367
 N-N= 6.192210289611D+02 E-N=-5.893197173712D+03  KE= 1.962561161688D+03
                          Isotropic Fermi Contact Couplings
        Atom                 a.u.       MegaHertz       Gauss      10(-4) cm-1
     1  Ni(61)            -1.13002     226.07794      80.67023      75.41148
     2  O(17)              0.05765     -17.47391      -6.23513      -5.82867
     3  H(1)               0.00052       1.15337       0.41155       0.38472
     4  H(1)               0.00052       1.16375       0.41526       0.38819
     5  O(17)              0.05769     -17.48546      -6.23925      -5.83252
     6  H(1)               0.00052       1.15818       0.41327       0.38633
     7  H(1)               0.00053       1.18022       0.42113       0.39368
     8  O(17)              0.05765     -17.47481      -6.23545      -5.82897
     9  H(1)               0.00051       1.15004       0.41036       0.38361
    10  H(1)               0.00052       1.16827       0.41687       0.38969
    11  O(17)              0.05765     -17.47391      -6.23513      -5.82867
    12  H(1)               0.00052       1.15337       0.41155       0.38472
    13  H(1)               0.00052       1.16375       0.41526       0.38819
    14  O(17)              0.05769     -17.48546      -6.23925      -5.83252
    15  H(1)               0.00052       1.15818       0.41327       0.38633
    16  H(1)               0.00053       1.18022       0.42113       0.39368
    17  O(17)              0.05765     -17.47481      -6.23545      -5.82897
    18  H(1)               0.00051       1.15004       0.41036       0.38361
    19  H(1)               0.00052       1.16827       0.41687       0.38969
 --------------------------------------------------------
       Center         ----  Spin Dipole Couplings  ----
                      3XX-RR        3YY-RR        3ZZ-RR
 --------------------------------------------------------
     1   Atom        0.000109      0.000065     -0.000173
     2   Atom        0.113160     -0.058508     -0.054652
     3   Atom        0.017918     -0.005505     -0.012413
     4   Atom        0.017686     -0.005295     -0.012391
     5   Atom       -0.058510     -0.054563      0.113072
     6   Atom       -0.005535     -0.012423      0.017958
     7   Atom       -0.005236     -0.012293      0.017529
     8   Atom       -0.054670      0.113158     -0.058487
     9   Atom       -0.012424      0.018051     -0.005627
    10   Atom       -0.012383      0.017549     -0.005166
    11   Atom        0.113160     -0.058508     -0.054652
    12   Atom        0.017918     -0.005505     -0.012413
    13   Atom        0.017686     -0.005295     -0.012391
    14   Atom       -0.058510     -0.054563      0.113072
    15   Atom       -0.005535     -0.012423      0.017958
    16   Atom       -0.005236     -0.012293      0.017529
    17   Atom       -0.054670      0.113158     -0.058487
    18   Atom       -0.012424      0.018051     -0.005627
    19   Atom       -0.012383      0.017549     -0.005166
 --------------------------------------------------------
                        XY            XZ            YZ
 --------------------------------------------------------
     1   Atom        0.002228     -0.003041     -0.004447
     2   Atom       -0.000803     -0.003045     -0.000037
     3   Atom        0.009081     -0.000104      0.000086
     4   Atom       -0.009322     -0.000348      0.000101
     5   Atom        0.000001      0.000888     -0.004726
     6   Atom       -0.000017     -0.009051     -0.000329
     7   Atom       -0.000069      0.009326     -0.000431
     8   Atom        0.002376     -0.000012      0.001862
     9   Atom        0.000082      0.000066     -0.008928
    10   Atom        0.000262      0.000075      0.009469
    11   Atom       -0.000803     -0.003045     -0.000037
    12   Atom        0.009081     -0.000104      0.000086
    13   Atom       -0.009322     -0.000348      0.000101
    14   Atom        0.000001      0.000888     -0.004726
    15   Atom       -0.000017     -0.009051     -0.000329
    16   Atom       -0.000069      0.009326     -0.000431
    17   Atom        0.002376     -0.000012      0.001862
    18   Atom        0.000082      0.000066     -0.008928
    19   Atom        0.000262      0.000075      0.009469
 --------------------------------------------------------


 ---------------------------------------------------------------------------------
              Anisotropic Spin Dipole Couplings in Principal Axis System
 ---------------------------------------------------------------------------------

       Atom             a.u.   MegaHertz   Gauss  10(-4) cm-1        Axes

              Baa    -0.0046     0.221     0.079     0.074  0.1910  0.6261  0.7560
     1 Ni(61) Bbb    -0.0019     0.092     0.033     0.031  0.8437 -0.4983  0.1996
              Bcc     0.0066    -0.313    -0.112    -0.104 -0.5017 -0.5997  0.6234
 
              Baa    -0.0585     4.234     1.511     1.412  0.0049  0.9999  0.0134
     2 O(17)  Bbb    -0.0547     3.959     1.412     1.320  0.0181 -0.0135  0.9997
              Bcc     0.1132    -8.192    -2.923    -2.733  0.9998 -0.0047 -0.0181
 
              Baa    -0.0124    -6.625    -2.364    -2.210  0.0118 -0.0278  0.9995
     3 H(1)   Bbb    -0.0086    -4.594    -1.639    -1.532 -0.3236  0.9457  0.0301
              Bcc     0.0210    11.219     4.003     3.742  0.9461  0.3238 -0.0021
 
              Baa    -0.0124    -6.613    -2.360    -2.206  0.0121  0.0017  0.9999
     4 H(1)   Bbb    -0.0086    -4.589    -1.637    -1.531  0.3342  0.9425 -0.0056
              Bcc     0.0210    11.202     3.997     3.737  0.9424 -0.3342 -0.0108
 
              Baa    -0.0585     4.234     1.511     1.412  1.0000 -0.0066 -0.0054
     5 O(17)  Bbb    -0.0547     3.958     1.412     1.320  0.0068  0.9996  0.0281
              Bcc     0.1132    -8.192    -2.923    -2.732  0.0052 -0.0282  0.9996
 
              Baa    -0.0124    -6.632    -2.366    -2.212  0.0273  0.9994  0.0190
     6 H(1)   Bbb    -0.0086    -4.596    -1.640    -1.533  0.9462 -0.0320  0.3219
              Bcc     0.0210    11.228     4.006     3.745 -0.3223 -0.0091  0.9466
 
              Baa    -0.0123    -6.563    -2.342    -2.189 -0.0157  0.9997  0.0193
     7 H(1)   Bbb    -0.0086    -4.571    -1.631    -1.525  0.9416  0.0213 -0.3361
              Bcc     0.0209    11.134     3.973     3.714  0.3365 -0.0129  0.9416
 
              Baa    -0.0585     4.234     1.511     1.412  0.0100 -0.0110  0.9999
     8 O(17)  Bbb    -0.0547     3.958     1.412     1.320  0.9998 -0.0140 -0.0101
              Bcc     0.1132    -8.192    -2.923    -2.733  0.0142  0.9998  0.0108
 
              Baa    -0.0124    -6.630    -2.366    -2.212  0.9997 -0.0090 -0.0215
     9 H(1)   Bbb    -0.0086    -4.596    -1.640    -1.533  0.0232  0.3173  0.9480
              Bcc     0.0210    11.226     4.006     3.745  0.0017  0.9483 -0.3175
 
              Baa    -0.0124    -6.608    -2.358    -2.204  1.0000 -0.0094  0.0019
    10 H(1)   Bbb    -0.0086    -4.586    -1.637    -1.530 -0.0050 -0.3405  0.9402
              Bcc     0.0210    11.194     3.994     3.734  0.0082  0.9402  0.3405
 
              Baa    -0.0585     4.234     1.511     1.412  0.0049  0.9999  0.0134
    11 O(17)  Bbb    -0.0547     3.959     1.412     1.320  0.0181 -0.0135  0.9997
              Bcc     0.1132    -8.192    -2.923    -2.733  0.9998 -0.0047 -0.0181
 
              Baa    -0.0124    -6.625    -2.364    -2.210  0.0118 -0.0278  0.9995
    12 H(1)   Bbb    -0.0086    -4.594    -1.639    -1.532 -0.3236  0.9457  0.0301
              Bcc     0.0210    11.219     4.003     3.742  0.9461  0.3238 -0.0021
 
              Baa    -0.0124    -6.613    -2.360    -2.206  0.0121  0.0017  0.9999
    13 H(1)   Bbb    -0.0086    -4.589    -1.637    -1.531  0.3342  0.9425 -0.0056
              Bcc     0.0210    11.202     3.997     3.737  0.9424 -0.3342 -0.0108
 
              Baa    -0.0585     4.234     1.511     1.412  1.0000 -0.0066 -0.0054
    14 O(17)  Bbb    -0.0547     3.958     1.412     1.320  0.0068  0.9996  0.0281
              Bcc     0.1132    -8.192    -2.923    -2.732  0.0052 -0.0282  0.9996
 
              Baa    -0.0124    -6.632    -2.366    -2.212  0.0273  0.9994  0.0190
    15 H(1)   Bbb    -0.0086    -4.596    -1.640    -1.533  0.9462 -0.0320  0.3219
              Bcc     0.0210    11.228     4.006     3.745 -0.3223 -0.0091  0.9466
 
              Baa    -0.0123    -6.563    -2.342    -2.189 -0.0157  0.9997  0.0193
    16 H(1)   Bbb    -0.0086    -4.571    -1.631    -1.525  0.9416  0.0213 -0.3361
              Bcc     0.0209    11.134     3.973     3.714  0.3365 -0.0129  0.9416
 
              Baa    -0.0585     4.234     1.511     1.412  0.0100 -0.0110  0.9999
    17 O(17)  Bbb    -0.0547     3.958     1.412     1.320  0.9998 -0.0140 -0.0101
              Bcc     0.1132    -8.192    -2.923    -2.733  0.0142  0.9998  0.0108
 
              Baa    -0.0124    -6.630    -2.366    -2.212  0.9997 -0.0090 -0.0215
    18 H(1)   Bbb    -0.0086    -4.596    -1.640    -1.533  0.0232  0.3173  0.9480
              Bcc     0.0210    11.226     4.006     3.745  0.0017  0.9483 -0.3175
 
              Baa    -0.0124    -6.608    -2.358    -2.204  1.0000 -0.0094  0.0019
    19 H(1)   Bbb    -0.0086    -4.586    -1.637    -1.530 -0.0050 -0.3405  0.9402
              Bcc     0.0210    11.194     3.994     3.734  0.0082  0.9402  0.3405
 

 ---------------------------------------------------------------------------------

 Calling FoFJK, ICntrl=      2127 FMM=F ISym2X=0 I1Cent= 0 IOpClX= 1 NMat=1 NMatS=1 NMatT=0.
 -------------------------------------------------------------------
 Center     Atomic                   Forces (Hartrees/Bohr)
 Number     Number              X              Y              Z
 -------------------------------------------------------------------
      1       28           0.000000000    0.000000000    0.000000000
      2        8           0.027637738   -0.000195570   -0.000319856
      3        1           0.000066382    0.000087783   -0.000015685
      4        1           0.000041368   -0.000078986   -0.000013615
      5        8           0.005617508    0.000505227   -0.024328001
      6        1          -0.000214066    0.000040141    0.000355802
      7        1          -0.005644055    0.000022666   -0.003805106
      8        8          -0.000234802   -0.027644589   -0.000367980
      9        1          -0.000012975   -0.000056236    0.000052151
     10        1          -0.000024861   -0.000046969   -0.000095016
     11        8          -0.027637738    0.000195570    0.000319856
     12        1          -0.000066382   -0.000087783    0.000015685
     13        1          -0.000041368    0.000078986    0.000013615
     14        8          -0.005617508   -0.000505227    0.024328001
     15        1           0.000214066   -0.000040141   -0.000355803
     16        1           0.005644055   -0.000022666    0.003805106
     17        8           0.000234802    0.027644589    0.000367980
     18        1           0.000012975    0.000056236   -0.000052151
     19        1           0.000024861    0.000046969    0.000095016
 -------------------------------------------------------------------
 Cartesian Forces:  Max     0.027644589 RMS     0.008783176

 GradGradGradGradGradGradGradGradGradGradGradGradGradGradGradGradGradGrad
 Berny optimization.
 FormGI is forming the generalized inverse of G from B-inverse, IUseBI=4.
 Internal  Forces:  Max     0.027783892 RMS     0.006432553
 Search for a local minimum.
 Step number   1 out of a maximum of  114
 All quantities printed in internal units (Hartrees-Bohrs-Radians)
 Mixed Optimization -- En-DIIS/RFO-DIIS
 Second derivative matrix not updated -- first step.
 ITU=  0
     Eigenvalues ---    0.00230   0.00230   0.00230   0.00230   0.00230
     Eigenvalues ---    0.00230   0.00230   0.00230   0.00231   0.00231
     Eigenvalues ---    0.00232   0.00232   0.05507   0.05507   0.05509
     Eigenvalues ---    0.06422   0.06423   0.06424   0.12541   0.12580
     Eigenvalues ---    0.12724   0.16000   0.16000   0.16000   0.16000
     Eigenvalues ---    0.16000   0.16000   0.16000   0.16000   0.16000
     Eigenvalues ---    0.16000   0.16000   0.16000   0.53406   0.53406
     Eigenvalues ---    0.54792   0.54792   0.54795   0.54795   0.54798
     Eigenvalues ---    0.54798   0.54798   0.54798   0.54887   0.54887
     Eigenvalues --- 1000.000001000.000001000.000001000.000001000.00000
     Eigenvalues --- 1000.000001000.000001000.000001000.000001000.00000
     Eigenvalues --- 1000.000001000.000001000.000001000.000001000.00000
     Eigenvalues --- 1000.000001000.000001000.000001000.000001000.00000
     Eigenvalues --- 1000.000001000.000001000.000001000.000001000.00000
     Eigenvalues --- 1000.000001000.000001000.000001000.000001000.00000
     Eigenvalues --- 1000.000001000.000001000.000001000.000001000.00000
     Eigenvalues --- 1000.000001000.000001000.000001000.000001000.00000
     Eigenvalues --- 1000.000001000.000001000.000001000.000001000.00000
     Eigenvalues --- 1000.000001000.000001000.000001000.000001000.00000
     Eigenvalues --- 1000.000001000.000001000.000001000.000001000.00000
     Eigenvalues --- 1000.000001000.000001000.000001000.000001000.00000
     Eigenvalues --- 1000.000001000.000001000.000001000.000001000.00000
     Eigenvalues --- 1000.000001000.000001000.000001000.00000
 RFO step:  Lambda=-1.74728870D-04 EMin= 2.30000000D-03
 Linear search not attempted -- first point.
 Iteration  1 RMS(Cart)=  0.00171352 RMS(Int)=  0.00000218
 Iteration  2 RMS(Cart)=  0.00000158 RMS(Int)=  0.00000030
 Iteration  3 RMS(Cart)=  0.00000000 RMS(Int)=  0.00000030
 Iteration  1 RMS(Cart)=  0.00000000 RMS(Int)=  0.00000000
 Variable       Old X    -DE/DX   Delta X   Delta X   Delta X     New X
                                 (Linear)    (Quad)   (Total)
    R1        4.53534  -0.02775   0.00000   0.00000   0.00000   4.53534
    R2        4.53534  -0.02778   0.00000   0.00000   0.00000   4.53534
    R3        4.53534  -0.02775   0.00000   0.00000   0.00000   4.53534
    R4        4.53534  -0.02775   0.00000   0.00000   0.00000   4.53534
    R5        4.53534  -0.02778   0.00000   0.00000   0.00000   4.53534
    R6        4.53534  -0.02775   0.00000   0.00000   0.00000   4.53534
    R7        1.82018  -0.00012   0.00000  -0.00021  -0.00021   1.81997
    R8        1.82012  -0.00008   0.00000  -0.00015  -0.00015   1.81997
    R9        1.81933   0.00038   0.00000   0.00068   0.00068   1.82001
   R10        1.83277  -0.00680   0.00000  -0.01272  -0.01272   1.82004
   R11        1.82012  -0.00009   0.00000  -0.00016  -0.00016   1.81996
   R12        1.82015  -0.00009   0.00000  -0.00017  -0.00017   1.81998
   R13        1.82018  -0.00012   0.00000  -0.00021  -0.00021   1.81997
   R14        1.82012  -0.00008   0.00000  -0.00015  -0.00015   1.81997
   R15        1.81933   0.00038   0.00000   0.00068   0.00068   1.82001
   R16        1.83277  -0.00680   0.00000  -0.01272  -0.01272   1.82004
   R17        1.82012  -0.00009   0.00000  -0.00016  -0.00016   1.81996
   R18        1.82015  -0.00009   0.00000  -0.00017  -0.00017   1.81998
    A1        1.56672   0.00000   0.00000  -0.00003  -0.00003   1.56669
    A2        1.57391   0.00000   0.00000   0.00000   0.00000   1.57392
    A3        1.57487   0.00000   0.00000   0.00003   0.00003   1.57490
    A4        1.56768   0.00000   0.00000   0.00000   0.00000   1.56767
    A5        1.57666   0.00000   0.00000   0.00001   0.00001   1.57667
    A6        1.57487   0.00000   0.00000   0.00003   0.00003   1.57490
    A7        1.56493   0.00000   0.00000  -0.00001  -0.00001   1.56492
    A8        1.56768   0.00000   0.00000   0.00000   0.00000   1.56767
    A9        1.56493   0.00000   0.00000  -0.00001  -0.00001   1.56492
   A10        1.56672   0.00000   0.00000  -0.00003  -0.00003   1.56669
   A11        1.57391   0.00000   0.00000   0.00000   0.00000   1.57392
   A12        1.57666   0.00000   0.00000   0.00001   0.00001   1.57667
   A13        2.19348   0.00000   0.00000   0.00001   0.00001   2.19349
   A14        2.19711   0.00000   0.00000   0.00002   0.00002   2.19712
   A15        1.89230  -0.00001   0.00000  -0.00004  -0.00004   1.89226
   A16        2.19244   0.00010   0.00000   0.00060   0.00060   2.19305
   A17        2.19760   0.00010   0.00000   0.00062   0.00062   2.19822
   A18        1.89250  -0.00021   0.00000  -0.00132  -0.00132   1.89118
   A19        2.19200   0.00000   0.00000  -0.00001  -0.00001   2.19199
   A20        2.19871   0.00000   0.00000   0.00000   0.00000   2.19871
   A21        1.89228   0.00000   0.00000  -0.00002  -0.00002   1.89227
   A22        2.19348   0.00000   0.00000   0.00001   0.00001   2.19349
   A23        2.19711   0.00000   0.00000   0.00002   0.00002   2.19712
   A24        1.89230  -0.00001   0.00000  -0.00004  -0.00004   1.89226
   A25        2.19244   0.00010   0.00000   0.00060   0.00060   2.19305
   A26        2.19760   0.00010   0.00000   0.00062   0.00062   2.19822
   A27        1.89250  -0.00021   0.00000  -0.00132  -0.00132   1.89118
   A28        2.19200   0.00000   0.00000  -0.00001  -0.00001   2.19199
   A29        2.19871   0.00000   0.00000   0.00000   0.00000   2.19871
   A30        1.89228   0.00000   0.00000  -0.00002  -0.00002   1.89227
   A31        3.14159   0.00000   0.00000   0.00000   0.00000   3.14159
   A32        3.14159   0.00000   0.00000   0.00000   0.00000   3.14159
   A33        3.14159   0.00000   0.00000   0.00000   0.00000   3.14159
   A34        3.14159   0.00000   0.00000   0.00000   0.00000   3.14159
   A35        3.14159   0.00000   0.00000   0.00000   0.00000   3.14159
   A36        3.14159   0.00000   0.00000   0.00000   0.00000   3.14159
    D1       -1.57992   0.00000   0.00000  -0.00148  -0.00148  -1.58140
    D2        1.59098   0.00000   0.00000  -0.00065  -0.00065   1.59033
    D3        3.12661   0.00000   0.00000  -0.00149  -0.00149   3.12513
    D4        0.01433   0.00000   0.00000  -0.00066  -0.00066   0.01367
    D5        1.56167   0.00000   0.00000  -0.00148  -0.00148   1.56020
    D6       -1.55061   0.00000   0.00000  -0.00065  -0.00065  -1.55127
    D7       -0.01498   0.00000   0.00000  -0.00149  -0.00149  -0.01647
    D8       -3.12727   0.00000   0.00000  -0.00066  -0.00066  -3.12793
    D9        3.14159   0.00000   0.00000   0.00000   0.00000   3.14159
   D10       -0.02931   0.00000   0.00000  -0.00083  -0.00083  -0.03013
   D11        0.02931   0.00000   0.00000   0.00083   0.00083   0.03013
   D12        3.14159   0.00000   0.00000   0.00000   0.00000   3.14159
   D13       -0.02130  -0.00001   0.00000  -0.00223  -0.00223  -0.02353
   D14       -3.12007   0.00000   0.00000   0.00109   0.00109  -3.11898
   D15        1.55259  -0.00001   0.00000  -0.00222  -0.00222   1.55036
   D16       -1.54618   0.00000   0.00000   0.00110   0.00110  -1.54509
   D17        3.12029  -0.00001   0.00000  -0.00223  -0.00223   3.11806
   D18        0.02152   0.00000   0.00000   0.00109   0.00109   0.02261
   D19       -1.58901  -0.00001   0.00000  -0.00222  -0.00222  -1.59123
   D20        1.59541   0.00000   0.00000   0.00110   0.00110   1.59651
   D21        3.14159   0.00000   0.00000   0.00000   0.00000   3.14159
   D22       -0.04282  -0.00001   0.00000  -0.00332  -0.00332  -0.04614
   D23        0.04282   0.00001   0.00000   0.00332   0.00332   0.04614
   D24        3.14159   0.00000   0.00000   0.00000   0.00000   3.14159
   D25       -1.56096   0.00000   0.00000   0.00065   0.00065  -1.56031
   D26        1.55734  -0.00001   0.00000  -0.00137  -0.00137   1.55597
   D27       -3.12770   0.00000   0.00000   0.00068   0.00068  -3.12702
   D28       -0.00940   0.00000   0.00000  -0.00134  -0.00134  -0.01074
   D29        1.58063   0.00000   0.00000   0.00065   0.00065   1.58128
   D30       -1.58426  -0.00001   0.00000  -0.00137  -0.00137  -1.58563
   D31        0.01390   0.00000   0.00000   0.00068   0.00068   0.01458
   D32        3.13219   0.00000   0.00000  -0.00134  -0.00134   3.13085
   D33        3.14159   0.00000   0.00000   0.00000   0.00000   3.14159
   D34        0.02330   0.00001   0.00000   0.00202   0.00202   0.02532
   D35       -0.02330  -0.00001   0.00000  -0.00202  -0.00202  -0.02532
   D36        3.14159   0.00000   0.00000   0.00000   0.00000   3.14159
   D37       -1.56167   0.00000   0.00000   0.00148   0.00148  -1.56020
   D38        1.55061   0.00000   0.00000   0.00065   0.00065   1.55127
   D39        0.01498   0.00000   0.00000   0.00149   0.00149   0.01647
   D40        3.12727   0.00000   0.00000   0.00066   0.00066   3.12793
   D41        1.57992   0.00000   0.00000   0.00148   0.00148   1.58140
   D42       -1.59098   0.00000   0.00000   0.00065   0.00065  -1.59033
   D43       -3.12661   0.00000   0.00000   0.00149   0.00149  -3.12513
   D44       -0.01433   0.00000   0.00000   0.00066   0.00066  -0.01367
   D45       -3.12029   0.00001   0.00000   0.00223   0.00223  -3.11806
   D46       -0.02152   0.00000   0.00000  -0.00109  -0.00109  -0.02261
   D47        1.58901   0.00001   0.00000   0.00222   0.00222   1.59123
   D48       -1.59541   0.00000   0.00000  -0.00110  -0.00110  -1.59651
   D49        0.02130   0.00001   0.00000   0.00223   0.00223   0.02353
   D50        3.12007   0.00000   0.00000  -0.00109  -0.00109   3.11898
   D51       -1.55259   0.00001   0.00000   0.00222   0.00222  -1.55036
   D52        1.54618   0.00000   0.00000  -0.00110  -0.00110   1.54509
   D53       -1.58063   0.00000   0.00000  -0.00065  -0.00065  -1.58128
   D54        1.58426   0.00001   0.00000   0.00137   0.00137   1.58563
   D55       -0.01390   0.00000   0.00000  -0.00068  -0.00068  -0.01458
   D56       -3.13219   0.00000   0.00000   0.00134   0.00134  -3.13085
   D57        1.56096   0.00000   0.00000  -0.00065  -0.00065   1.56031
   D58       -1.55734   0.00001   0.00000   0.00137   0.00137  -1.55597
   D59        3.12770   0.00000   0.00000  -0.00068  -0.00068   3.12702
   D60        0.00940   0.00000   0.00000   0.00134   0.00134   0.01074
         Item               Value     Threshold  Converged?
 Maximum Force            0.006798     0.000450     NO 
 RMS     Force            0.000927     0.000300     NO 
 Maximum Displacement     0.009292     0.001800     NO 
 RMS     Displacement     0.001714     0.001200     NO 
 Predicted change in Energy=-8.740372D-05
 GradGradGradGradGradGradGradGradGradGradGradGradGradGradGradGradGradGrad

                          Input orientation:                          
 ---------------------------------------------------------------------
 Center     Atomic      Atomic             Coordinates (Angstroms)
 Number     Number       Type             X           Y           Z
 ---------------------------------------------------------------------
      1         28           0        0.000000    0.000000    0.000000
      2          8           0       -2.399786    0.014038    0.028821
      3          1           0       -2.966281   -0.764647    0.012553
      4          1           0       -2.959715    0.797606    0.035049
      5          8           0        0.018696   -0.045281    2.399500
      6          1           0       -0.759157   -0.032824    2.967276
      7          1           0        0.802662   -0.042943    2.958968
      8          8           0        0.021902    2.399700    0.031005
      9          1           0        0.009461    2.970423   -0.744654
     10          1           0        0.024807    2.955355    0.817631
     11          8           0        2.399786   -0.014038   -0.028821
     12          1           0        2.966281    0.764647   -0.012553
     13          1           0        2.959715   -0.797606   -0.035049
     14          8           0       -0.018696    0.045281   -2.399500
     15          1           0        0.759157    0.032824   -2.967276
     16          1           0       -0.802662    0.042943   -2.958968
     17          8           0       -0.021902   -2.399700   -0.031005
     18          1           0       -0.009461   -2.970423    0.744654
     19          1           0       -0.024807   -2.955355   -0.817631
 ---------------------------------------------------------------------
                    Distance matrix (angstroms):
                    1          2          3          4          5
     1  Ni   0.000000
     2  O    2.400000   0.000000
     3  H    3.063277   0.963084   0.000000
     4  H    3.065504   0.963088   1.562429   0.000000
     5  O    2.400000   3.387136   3.889100   3.895128   0.000000
     6  H    3.063025   3.365765   3.759967   3.758993   0.963109
     7  H    3.066203   4.341046   4.838094   4.838523   0.963126
     8  O    2.400000   3.399406   4.352318   3.384783   3.404073
     9  H    3.062354   3.891394   4.835199   3.760993   4.356634
    10  H    3.066473   3.892585   4.840782   3.765061   3.392073
    11  O    2.400000   4.800000   5.418469   5.420986   3.401075
    12  H    3.063277   5.418469   6.126554   5.926279   3.893872
    13  H    3.065504   5.420986   5.926279   6.131008   3.891351
    14  O    2.400000   3.401075   3.893872   3.891351   4.800000
    15  H    3.063025   4.353834   4.836758   4.840336   5.418179
    16  H    3.066203   3.387997   3.763427   3.766501   5.421770
    17  O    2.400000   3.388811   3.368184   4.342566   3.384123
    18  H    3.062354   3.890125   3.760878   4.837932   3.360917
    19  H    3.066473   3.895420   3.760409   4.839986   4.338243
                    6          7          8          9         10
     6  H    0.000000
     7  H    1.561873   0.000000
     8  O    3.892161   3.892179   0.000000
     9  H    4.836186   4.840078   0.963082   0.000000
    10  H    3.763613   3.765657   0.963090   1.562434   0.000000
    11  O    4.353834   3.387997   3.388811   3.890125   3.895420
    12  H    4.836758   3.763427   3.368184   3.760878   3.760409
    13  H    4.840336   3.766501   4.342566   4.837932   4.839986
    14  O    5.418179   5.421770   3.384123   3.360917   4.338243
    15  H    6.126050   5.926888   3.890415   3.759199   4.837972
    16  H    5.926888   6.132406   3.895400   3.759370   4.840408
    17  O    3.890415   3.895400   4.800000   5.417425   5.422082
    18  H    3.759199   3.759370   5.417425   6.124707   5.926326
    19  H    4.837972   4.840408   5.422082   5.926326   6.132946
                   11         12         13         14         15
    11  O    0.000000
    12  H    0.963084   0.000000
    13  H    0.963088   1.562429   0.000000
    14  O    3.387136   3.889100   3.895128   0.000000
    15  H    3.365765   3.759967   3.758993   0.963109   0.000000
    16  H    4.341046   4.838094   4.838523   0.963126   1.561873
    17  O    3.399406   4.352318   3.384783   3.404073   3.892161
    18  H    3.891394   4.835199   3.760993   4.356634   4.836186
    19  H    3.892585   4.840782   3.765061   3.392073   3.763613
                   16         17         18         19
    16  H    0.000000
    17  O    3.892179   0.000000
    18  H    4.840078   0.963082   0.000000
    19  H    3.765657   0.963090   1.562434   0.000000
 Symmetry turned off by external request.
 Stoichiometry    H12NiO6(2+,3)
 Framework group  CI[O(Ni),X(H12O6)]
 Deg. of freedom    24
 Full point group                 CI      NOp   2
 Rotational constants (GHZ):      1.1418406      1.1362801      1.1347919
 Standard basis: 6-311++G(2d,2p) (5D, 7F)
   347 basis functions,   500 primitive gaussians,   369 cartesian basis functions
    44 alpha electrons       42 beta electrons
       nuclear repulsion energy       619.3079039447 Hartrees.
 NAtoms=   19 NActive=   19 NUniq=   19 SFac= 1.00D+00 NAtFMM=   60 NAOKFM=F Big=F
 Integral buffers will be    131072 words long.
 Raffenetti 2 integral format.
 Two-electron integral symmetry is turned off.
 One-electron integrals computed using PRISM.
 NBasis=   347 RedAO= T EigKep=  1.70D-04  NBF=   347
 NBsUse=   347 1.00D-06 EigRej= -1.00D+00 NBFU=   347
 Initial guess from the checkpoint file:  "Ni23_24.chk"
 B after Tr=     0.000000    0.000000    0.000000
         Rot=    1.000000   -0.000039   -0.000102    0.000023 Ang=  -0.01 deg.
 Initial guess <Sx>= 0.0000 <Sy>= 0.0000 <Sz>= 1.0000 <S**2>= 2.0038 S= 1.0013
 Keep R1 and R2 ints in memory in canonical form, NReq=3671324766.
 Requested convergence on RMS density matrix=1.00D-08 within 128 cycles.
 Requested convergence on MAX density matrix=1.00D-06.
 Requested convergence on             energy=1.00D-06.
 No special actions if energy rises.
 SCF Done:  E(UM062X) =  -1966.29101421     A.U. after   16 cycles
            NFock= 16  Conv=0.12D-08     -V/T= 2.0019
 <Sx>= 0.0000 <Sy>= 0.0000 <Sz>= 1.0000 <S**2>= 2.0038 S= 1.0013
 <L.S>= 0.000000000000E+00
 Annihilation of the first spin contaminant:
 S**2 before annihilation     2.0038,   after     2.0000
 Calling FoFJK, ICntrl=      2127 FMM=F ISym2X=0 I1Cent= 0 IOpClX= 1 NMat=1 NMatS=1 NMatT=0.
 -------------------------------------------------------------------
 Center     Atomic                   Forces (Hartrees/Bohr)
 Number     Number              X              Y              Z
 -------------------------------------------------------------------
      1       28           0.000000000    0.000000000    0.000000000
      2        8           0.027758537   -0.000168796   -0.000316401
      3        1           0.000004244   -0.000014281   -0.000020182
      4        1          -0.000002636   -0.000007347   -0.000024425
      5        8          -0.000215853    0.000502983   -0.027596574
      6        1          -0.000068407    0.000029655   -0.000072457
      7        1           0.000033837    0.000032323   -0.000076943
      8        8          -0.000234039   -0.027755889   -0.000371138
      9        1          -0.000015541   -0.000005702   -0.000025719
     10        1          -0.000021304    0.000007650   -0.000019747
     11        8          -0.027758537    0.000168796    0.000316401
     12        1          -0.000004244    0.000014281    0.000020182
     13        1           0.000002636    0.000007347    0.000024425
     14        8           0.000215853   -0.000502983    0.027596574
     15        1           0.000068407   -0.000029655    0.000072457
     16        1          -0.000033837   -0.000032323    0.000076943
     17        8           0.000234039    0.027755889    0.000371138
     18        1           0.000015541    0.000005702    0.000025719
     19        1           0.000021304   -0.000007650    0.000019747
 -------------------------------------------------------------------
 Cartesian Forces:  Max     0.027758537 RMS     0.008989544

 GradGradGradGradGradGradGradGradGradGradGradGradGradGradGradGradGradGrad
 Berny optimization.
 Using GEDIIS/GDIIS optimizer.
 FormGI is forming the generalized inverse of G from B-inverse, IUseBI=4.
 Internal  Forces:  Max     0.027763018 RMS     0.006368135
 Search for a local minimum.
 Step number   2 out of a maximum of  114
 All quantities printed in internal units (Hartrees-Bohrs-Radians)
 Mixed Optimization -- En-DIIS/RFO-DIIS
 Swapping is turned off.
 Update second derivatives using D2CorX and points    1    2
 DE= -8.80D-05 DEPred=-8.74D-05 R= 1.01D+00
 TightC=F SS=  1.41D+00  RLast= 2.12D-02 DXNew= 5.0454D-01 6.3637D-02
 Trust test= 1.01D+00 RLast= 2.12D-02 DXMaxT set to 3.00D-01
 ITU=  1  0
     Eigenvalues ---    0.00230   0.00230   0.00230   0.00230   0.00230
     Eigenvalues ---    0.00230   0.00230   0.00231   0.00231   0.00231
     Eigenvalues ---    0.00232   0.00232   0.05507   0.05507   0.05507
     Eigenvalues ---    0.06422   0.06423   0.06424   0.12541   0.12580
     Eigenvalues ---    0.12724   0.16000   0.16000   0.16000   0.16000
     Eigenvalues ---    0.16000   0.16000   0.16000   0.16000   0.16000
     Eigenvalues ---    0.16000   0.16000   0.16070   0.53305   0.53406
     Eigenvalues ---    0.54792   0.54792   0.54795   0.54795   0.54798
     Eigenvalues ---    0.54798   0.54798   0.54801   0.54884   0.54887
     Eigenvalues --- 1000.000001000.000001000.000001000.000001000.00000
     Eigenvalues --- 1000.000001000.000001000.000001000.000001000.00000
     Eigenvalues --- 1000.000001000.000001000.000001000.000001000.00000
     Eigenvalues --- 1000.000001000.000001000.000001000.000001000.00000
     Eigenvalues --- 1000.000001000.000001000.000001000.000001000.00000
     Eigenvalues --- 1000.000001000.000001000.000001000.000001000.00000
     Eigenvalues --- 1000.000001000.000001000.000001000.000001000.00000
     Eigenvalues --- 1000.000001000.000001000.000001000.000001000.00000
     Eigenvalues --- 1000.000001000.000001000.000001000.000001000.00000
     Eigenvalues --- 1000.000001000.000001000.000001000.000001000.00000
     Eigenvalues --- 1000.000001000.000001000.000001000.000001000.00000
     Eigenvalues --- 1000.000001000.000001000.000001000.000001000.00000
[...]
    14  O    0.000068  -0.009566   0.001606   0.000124  -0.008273   0.000117
    15  H   -0.000086   0.000043  -0.000343   0.000013   0.001102  -0.000369
    16  H    0.000008   0.000260  -0.000451   0.000051   0.000191   0.000013
    17  O    0.000260   0.001433   0.000045   0.000069  -0.013658  -0.000057
    18  H   -0.000451   0.000044   0.000007  -0.000081   0.000453   0.000031
    19  H    0.000051   0.000068  -0.000081   0.000007   0.000333   0.000066
              13         14         15         16         17         18
     1  Ni  -0.013792   0.155650  -0.009037  -0.011940   0.159507  -0.012349
     2  O    0.000073  -0.013459  -0.000020   0.002102  -0.008072   0.000175
     3  H   -0.000087   0.000380   0.000020  -0.000402   0.001052  -0.000353
     4  H    0.000003   0.000518   0.000063  -0.000293   0.000169   0.000028
     5  O    0.000518   0.001480   0.000032   0.000068  -0.009558   0.001600
     6  H    0.000063   0.000032   0.000009  -0.000086   0.000043  -0.000343
     7  H   -0.000293   0.000068  -0.000086   0.000008   0.000260  -0.000451
     8  O    0.000169  -0.009566   0.000043   0.000260   0.001433   0.000044
     9  H    0.000028   0.001606  -0.000343  -0.000451   0.000045   0.000007
    10  H    0.000063   0.000124   0.000013   0.000051   0.000069  -0.000081
    11  O    0.288759  -0.008273   0.001102   0.000191  -0.013658   0.000453
    12  H   -0.007856   0.000117  -0.000369   0.000013  -0.000057   0.000031
    13  H    0.387996   0.000332  -0.000454   0.000051   0.002175  -0.000382
    14  O    0.000332   7.728826   0.287404   0.288948  -0.012289   0.000081
    15  H   -0.000454   0.287404   0.389870  -0.008742   0.000182   0.000039
    16  H    0.000051   0.288948  -0.008742   0.386713   0.000255   0.000081
    17  O    0.002175  -0.012289   0.000182   0.000255   7.714639   0.289525
    18  H   -0.000382   0.000081   0.000039   0.000081   0.289525   0.396758
    19  H   -0.000282   0.001923  -0.000370  -0.000249   0.289602  -0.007787
              19
     1  Ni  -0.011756
     2  O    0.000179
     3  H   -0.000436
     4  H    0.000063
     5  O    0.000124
     6  H    0.000013
     7  H    0.000051
     8  O    0.000068
     9  H   -0.000081
    10  H    0.000007
    11  O    0.000333
    12  H    0.000066
    13  H   -0.000282
    14  O    0.001923
    15  H   -0.000370
    16  H   -0.000249
    17  O    0.289602
    18  H   -0.007787
    19  H    0.386802
          Atomic-Atomic Spin Densities.
               1          2          3          4          5          6
     1  Ni   1.948215  -0.013876   0.001140   0.001109  -0.013681   0.001045
     2  O   -0.013876   0.036555  -0.001422  -0.001526  -0.001054   0.000031
     3  H    0.001140  -0.001422   0.001792   0.000686   0.000035   0.000003
     4  H    0.001109  -0.001526   0.000686   0.001658   0.000028   0.000013
     5  O   -0.013681  -0.001054   0.000035   0.000028   0.036164  -0.001525
     6  H    0.001045   0.000031   0.000003   0.000013  -0.001525   0.001923
     7  H    0.001017   0.000057   0.000000   0.000003  -0.001638   0.000768
     8  O   -0.013759  -0.001214   0.000047   0.000100  -0.001157   0.000051
     9  H    0.001160   0.000050  -0.000004   0.000002   0.000054  -0.000004
    10  H    0.001035   0.000053  -0.000003   0.000005   0.000084   0.000001
    11  O   -0.013876   0.000235  -0.000008  -0.000009  -0.001169   0.000045
    12  H    0.001140  -0.000008  -0.000001   0.000007   0.000053  -0.000004
    13  H    0.001109  -0.000009   0.000007   0.000001   0.000044  -0.000002
    14  O   -0.013681  -0.001169   0.000053   0.000044   0.000236  -0.000007
    15  H    0.001045   0.000045  -0.000004  -0.000002  -0.000007  -0.000002
    16  H    0.001017   0.000095   0.000001   0.000006  -0.000009   0.000007
    17  O   -0.013759  -0.001075   0.000031   0.000060  -0.001135   0.000045
    18  H    0.001159   0.000033   0.000003   0.000000   0.000047   0.000003
    19  H    0.001035   0.000032   0.000011   0.000002   0.000060   0.000000
               7          8          9         10         11         12
     1  Ni   0.001017  -0.013759   0.001160   0.001035  -0.013876   0.001140
     2  O    0.000057  -0.001214   0.000050   0.000053   0.000235  -0.000008
     3  H    0.000000   0.000047  -0.000004  -0.000003  -0.000008  -0.000001
     4  H    0.000003   0.000100   0.000002   0.000005  -0.000009   0.000007
     5  O   -0.001638  -0.001157   0.000054   0.000084  -0.001169   0.000053
     6  H    0.000768   0.000051  -0.000004   0.000001   0.000045  -0.000004
     7  H    0.001804   0.000047  -0.000003   0.000004   0.000095   0.000001
     8  O    0.000047   0.036491  -0.001352  -0.001580  -0.001075   0.000031
     9  H   -0.000003  -0.001352   0.001600   0.000697   0.000032   0.000003
    10  H    0.000004  -0.001580   0.000697   0.001736   0.000032   0.000011
    11  O    0.000095  -0.001075   0.000032   0.000032   0.036554  -0.001422
    12  H    0.000001   0.000031   0.000003   0.000011  -0.001422   0.001792
    13  H    0.000006   0.000060   0.000000   0.000002  -0.001526   0.000686
    14  O   -0.000009  -0.001134   0.000046   0.000060  -0.001054   0.000035
    15  H    0.000007   0.000045   0.000003   0.000000   0.000031   0.000003
    16  H    0.000001   0.000035   0.000014   0.000002   0.000057   0.000000
    17  O    0.000035   0.000232  -0.000008  -0.000010  -0.001214   0.000047
    18  H    0.000014  -0.000008  -0.000001   0.000007   0.000050  -0.000004
    19  H    0.000002  -0.000010   0.000007   0.000001   0.000053  -0.000003
              13         14         15         16         17         18
     1  Ni   0.001109  -0.013681   0.001045   0.001017  -0.013759   0.001159
     2  O   -0.000009  -0.001169   0.000045   0.000095  -0.001075   0.000033
     3  H    0.000007   0.000053  -0.000004   0.000001   0.000031   0.000003
     4  H    0.000001   0.000044  -0.000002   0.000006   0.000060   0.000000
     5  O    0.000044   0.000236  -0.000007  -0.000009  -0.001135   0.000047
     6  H   -0.000002  -0.000007  -0.000002   0.000007   0.000045   0.000003
     7  H    0.000006  -0.000009   0.000007   0.000001   0.000035   0.000014
     8  O    0.000060  -0.001134   0.000045   0.000035   0.000232  -0.000008
     9  H    0.000000   0.000046   0.000003   0.000014  -0.000008  -0.000001
    10  H    0.000002   0.000060   0.000000   0.000002  -0.000010   0.000007
    11  O   -0.001526  -0.001054   0.000031   0.000057  -0.001214   0.000050
    12  H    0.000686   0.000035   0.000003   0.000000   0.000047  -0.000004
    13  H    0.001658   0.000028   0.000013   0.000003   0.000100   0.000002
    14  O    0.000028   0.036165  -0.001525  -0.001638  -0.001157   0.000054
    15  H    0.000013  -0.001525   0.001923   0.000768   0.000051  -0.000004
    16  H    0.000003  -0.001638   0.000768   0.001804   0.000047  -0.000003
    17  O    0.000100  -0.001157   0.000051   0.000047   0.036497  -0.001354
    18  H    0.000002   0.000054  -0.000004  -0.000003  -0.001354   0.001603
    19  H    0.000005   0.000084   0.000001   0.000004  -0.001579   0.000697
              19
     1  Ni   0.001035
     2  O    0.000032
     3  H    0.000011
     4  H    0.000002
     5  O    0.000060
     6  H    0.000000
     7  H    0.000002
     8  O   -0.000010
     9  H    0.000007
    10  H    0.000001
    11  O    0.000053
    12  H   -0.000003
    13  H    0.000005
    14  O    0.000084
    15  H    0.000001
    16  H    0.000004
    17  O   -0.001579
    18  H    0.000697
    19  H    0.001736
 Mulliken charges and spin densities:
               1          2
     1  Ni   0.440400   1.878594
     2  O   -0.422663   0.015834
     3  H    0.340065   0.002366
     4  H    0.342915   0.002186
     5  O   -0.423905   0.015431
     6  H    0.340643   0.002389
     7  H    0.343420   0.002210
     8  O   -0.415037   0.015851
     9  H    0.332652   0.002298
    10  H    0.341697   0.002135
    11  O   -0.422664   0.015834
    12  H    0.340063   0.002366
    13  H    0.342917   0.002186
    14  O   -0.423904   0.015431
    15  H    0.340646   0.002389
    16  H    0.343422   0.002210
    17  O   -0.415322   0.015855
    18  H    0.332925   0.002298
    19  H    0.341730   0.002136
 Sum of Mulliken charges =   2.00000   2.00000
 Mulliken charges and spin densities with hydrogens summed into heavy atoms:
               1          2
     1  Ni   0.440400   1.878594
     2  O    0.260317   0.020386
     5  O    0.260159   0.020031
     8  O    0.259312   0.020284
    11  O    0.260315   0.020386
    14  O    0.260165   0.020031
    17  O    0.259333   0.020289
 Electronic spatial extent (au):  <R**2>=           1412.9709
 Charge=              2.0000 electrons
 Dipole moment (field-independent basis, Debye):
    X=              0.0000    Y=             -0.0006    Z=              0.0007  Tot=              0.0009
 Quadrupole moment (field-independent basis, Debye-Ang):
   XX=            -11.2338   YY=            -11.5133   ZZ=            -11.1704
   XY=              0.8562   XZ=             -0.8070   YZ=             -0.2365
 Traceless Quadrupole moment (field-independent basis, Debye-Ang):
   XX=              0.0720   YY=             -0.2075   ZZ=              0.1354
   XY=              0.8562   XZ=             -0.8070   YZ=             -0.2365
 Octapole moment (field-independent basis, Debye-Ang**2):
  XXX=              0.0000  YYY=             -0.0133  ZZZ=              0.0014  XYY=             -0.0008
  XXY=              0.0018  XXZ=             -0.0002  XZZ=              0.0000  YZZ=             -0.0042
  YYZ=              0.0142  XYZ=              0.0003
 Hexadecapole moment (field-independent basis, Debye-Ang**3):
 XXXX=            -97.3647 YYYY=           -100.6743 ZZZZ=            -94.0561 XXXY=              7.1012
 XXXZ=            -17.5865 YYYX=             19.4347 YYYZ=              2.3357 ZZZX=             -5.6441
 ZZZY=            -11.7244 XXYY=           -130.3946 XXZZ=           -130.6635 YYZZ=           -131.3870
 XXYZ=             -0.7116 YYXZ=             -1.4330 ZZXY=              1.3391
 N-N= 6.198235790791D+02 E-N=-5.894366241066D+03  KE= 1.962661363392D+03
                          Isotropic Fermi Contact Couplings
        Atom                 a.u.       MegaHertz       Gauss      10(-4) cm-1
     1  Ni(61)            -1.13016     226.10456      80.67973      75.42036
     2  O(17)              0.05672     -17.19275      -6.13480      -5.73489
     3  H(1)               0.00051       1.14501       0.40857       0.38193
     4  H(1)               0.00043       0.95724       0.34157       0.31930
     5  O(17)              0.05750     -17.42927      -6.21920      -5.81378
     6  H(1)               0.00055       1.22285       0.43634       0.40790
     7  H(1)               0.00047       1.04077       0.37137       0.34716
     8  O(17)              0.05623     -17.04466      -6.08196      -5.68549
     9  H(1)               0.00046       1.02403       0.36540       0.34158
    10  H(1)               0.00043       0.95137       0.33947       0.31734
    11  O(17)              0.05672     -17.19272      -6.13479      -5.73487
    12  H(1)               0.00051       1.14499       0.40856       0.38193
    13  H(1)               0.00043       0.95725       0.34157       0.31930
    14  O(17)              0.05750     -17.42945      -6.21926      -5.81384
    15  H(1)               0.00055       1.22287       0.43635       0.40790
    16  H(1)               0.00047       1.04078       0.37138       0.34717
    17  O(17)              0.05624     -17.04690      -6.08276      -5.68623
    18  H(1)               0.00046       1.02536       0.36587       0.34202
    19  H(1)               0.00043       0.95220       0.33977       0.31762
 --------------------------------------------------------
       Center         ----  Spin Dipole Couplings  ----
                      3XX-RR        3YY-RR        3ZZ-RR
 --------------------------------------------------------
     1   Atom        0.000289     -0.000318      0.000029
     2   Atom        0.114293     -0.059714     -0.054579
     3   Atom        0.018015     -0.005690     -0.012326
     4   Atom        0.017759     -0.005169     -0.012591
     5   Atom       -0.058789     -0.054863      0.113652
     6   Atom       -0.005660     -0.012295      0.017955
     7   Atom       -0.005146     -0.012533      0.017679
     8   Atom       -0.054515      0.114667     -0.060152
     9   Atom       -0.012692      0.018494     -0.005801
    10   Atom       -0.012485      0.017661     -0.005176
    11   Atom        0.114293     -0.059714     -0.054579
    12   Atom        0.018015     -0.005690     -0.012326
    13   Atom        0.017759     -0.005169     -0.012591
    14   Atom       -0.058790     -0.054863      0.113653
    15   Atom       -0.005660     -0.012295      0.017955
    16   Atom       -0.005146     -0.012533      0.017679
    17   Atom       -0.054513      0.114665     -0.060152
    18   Atom       -0.012683      0.018481     -0.005798
    19   Atom       -0.012485      0.017661     -0.005176
 --------------------------------------------------------
                        XY            XZ            YZ
 --------------------------------------------------------
     1   Atom       -0.037242      0.031246      0.015225
     2   Atom       -0.005041      0.014091     -0.000555
     3   Atom        0.008814     -0.000148     -0.000493
     4   Atom       -0.009823     -0.000529      0.000818
     5   Atom        0.000296      0.004696      0.005726
     6   Atom        0.000184     -0.008743     -0.000160
     7   Atom       -0.000677      0.009711     -0.000758
     8   Atom       -0.016249     -0.000412      0.003675
     9   Atom        0.000102     -0.000572     -0.008989
    10   Atom        0.000518      0.000891      0.009774
    11   Atom       -0.005041      0.014091     -0.000555
    12   Atom        0.008814     -0.000148     -0.000493
    13   Atom       -0.009823     -0.000529      0.000818
    14   Atom        0.000296      0.004696      0.005727
    15   Atom        0.000184     -0.008743     -0.000160
    16   Atom       -0.000677      0.009711     -0.000758
    17   Atom       -0.016254     -0.000415      0.003689
    18   Atom        0.000103     -0.000572     -0.008986
    19   Atom        0.000518      0.000891      0.009774
 --------------------------------------------------------


 ---------------------------------------------------------------------------------
              Anisotropic Spin Dipole Couplings in Principal Axis System
 ---------------------------------------------------------------------------------

       Atom             a.u.   MegaHertz   Gauss  10(-4) cm-1        Axes

              Baa    -0.0567     2.709     0.967     0.904  0.6487  0.5658 -0.5090
     1 Ni(61) Bbb     0.0148    -0.708    -0.253    -0.236  0.0623  0.6271  0.7764
              Bcc     0.0419    -2.000    -0.714    -0.667  0.7585 -0.5354  0.3715
 
              Baa    -0.0599     4.332     1.546     1.445  0.0260  0.9990  0.0355
     2 O(17)  Bbb    -0.0557     4.033     1.439     1.345 -0.0835 -0.0332  0.9960
              Bcc     0.1156    -8.365    -2.985    -2.790  0.9962 -0.0289  0.0826
 
              Baa    -0.0124    -6.603    -2.356    -2.203 -0.0266  0.1082  0.9938
     3 H(1)   Bbb    -0.0086    -4.568    -1.630    -1.524 -0.3134  0.9431 -0.1111
              Bcc     0.0209    11.171     3.986     3.726  0.9492  0.3144 -0.0089
 
              Baa    -0.0127    -6.774    -2.417    -2.260 -0.0302 -0.1469  0.9887
     4 H(1)   Bbb    -0.0087    -4.649    -1.659    -1.551  0.3466  0.9262  0.1482
              Bcc     0.0214    11.423     4.076     3.810  0.9375 -0.3472 -0.0230
 
              Baa    -0.0589     4.264     1.521     1.422  0.9990 -0.0362 -0.0260
     5 O(17)  Bbb    -0.0551     3.984     1.421     1.329  0.0353  0.9988 -0.0349
              Bcc     0.1140    -8.247    -2.943    -2.751  0.0272  0.0339  0.9991
 
              Baa    -0.0123    -6.563    -2.342    -2.189 -0.0334  0.9994 -0.0043
     6 H(1)   Bbb    -0.0085    -4.557    -1.626    -1.520  0.9491  0.0330  0.3134
              Bcc     0.0208    11.120     3.968     3.709 -0.3133 -0.0063  0.9496
 
              Baa    -0.0126    -6.720    -2.398    -2.242  0.0997  0.9950 -0.0071
     7 H(1)   Bbb    -0.0087    -4.633    -1.653    -1.545  0.9331 -0.0960 -0.3465
              Bcc     0.0213    11.353     4.051     3.787  0.3454 -0.0279  0.9380
 
              Baa    -0.0602     4.358     1.555     1.454  0.0168 -0.0194  0.9997
     8 O(17)  Bbb    -0.0561     4.056     1.447     1.353  0.9954  0.0951 -0.0149
              Bcc     0.1163    -8.415    -3.003    -2.807 -0.0947  0.9953  0.0209
 
              Baa    -0.0128    -6.808    -2.429    -2.271  0.9919  0.0322  0.1231
     9 H(1)   Bbb    -0.0087    -4.642    -1.656    -1.548 -0.1270  0.3117  0.9416
              Bcc     0.0215    11.450     4.086     3.819  0.0081  0.9496 -0.3133
 
              Baa    -0.0126    -6.731    -2.402    -2.245  0.9854  0.0369 -0.1665
    10 H(1)   Bbb    -0.0087    -4.629    -1.652    -1.544  0.1689 -0.3459  0.9230
              Bcc     0.0213    11.360     4.054     3.789  0.0235  0.9376  0.3470
 
              Baa    -0.0599     4.332     1.546     1.445  0.0260  0.9990  0.0355
    11 O(17)  Bbb    -0.0557     4.033     1.439     1.345 -0.0835 -0.0332  0.9960
              Bcc     0.1156    -8.365    -2.985    -2.790  0.9962 -0.0289  0.0826
 
              Baa    -0.0124    -6.603    -2.356    -2.203 -0.0266  0.1082  0.9938
    12 H(1)   Bbb    -0.0086    -4.568    -1.630    -1.524 -0.3134  0.9431 -0.1111
              Bcc     0.0209    11.171     3.986     3.726  0.9492  0.3144 -0.0089
 
              Baa    -0.0127    -6.774    -2.417    -2.260 -0.0302 -0.1469  0.9887
    13 H(1)   Bbb    -0.0087    -4.649    -1.659    -1.551  0.3466  0.9262  0.1482
              Bcc     0.0214    11.423     4.076     3.810  0.9375 -0.3472 -0.0230
 
              Baa    -0.0589     4.264     1.521     1.422  0.9990 -0.0362 -0.0260
    14 O(17)  Bbb    -0.0551     3.984     1.421     1.329  0.0353  0.9988 -0.0349
              Bcc     0.1140    -8.247    -2.943    -2.751  0.0272  0.0339  0.9991
 
              Baa    -0.0123    -6.563    -2.342    -2.189 -0.0334  0.9994 -0.0043
    15 H(1)   Bbb    -0.0085    -4.557    -1.626    -1.520  0.9491  0.0330  0.3134
              Bcc     0.0208    11.120     3.968     3.709 -0.3133 -0.0063  0.9496
 
              Baa    -0.0126    -6.720    -2.398    -2.242  0.0997  0.9950 -0.0071
    16 H(1)   Bbb    -0.0087    -4.633    -1.653    -1.545  0.9331 -0.0960 -0.3465
              Bcc     0.0213    11.353     4.051     3.787  0.3454 -0.0279  0.9380
 
              Baa    -0.0602     4.358     1.555     1.454  0.0172 -0.0195  0.9997
    17 O(17)  Bbb    -0.0561     4.056     1.447     1.353  0.9954  0.0951 -0.0152
              Bcc     0.1163    -8.415    -3.003    -2.807 -0.0948  0.9953  0.0210
 
              Baa    -0.0128    -6.803    -2.428    -2.269  0.9919  0.0322  0.1231
    18 H(1)   Bbb    -0.0087    -4.640    -1.656    -1.548 -0.1270  0.3118  0.9416
              Bcc     0.0214    11.444     4.083     3.817  0.0081  0.9496 -0.3134
 
              Baa    -0.0126    -6.732    -2.402    -2.245  0.9854  0.0369 -0.1665
    19 H(1)   Bbb    -0.0087    -4.629    -1.652    -1.544  0.1689 -0.3459  0.9230
              Bcc     0.0213    11.360     4.054     3.789  0.0235  0.9376  0.3470
 

 ---------------------------------------------------------------------------------


 Writing a WFNX file to "Ni23_24.wfx"


 MUD THROWN IS GROUND LOST -- FROM A TEA BAG
 Error termination request processed by link 9999.
 Error termination via Lnk1e in /opt/SC/aplicaciones/g09-D.01/l9999.exe at Tue Sep  1 20:34:13 2015.
 Job cpu time:       1 days  7 hours 35 minutes 57.0 seconds.
 File lengths (MBytes):  RWF=     93 Int=      0 D2E=      0 Chk=     12 Scr=      1
