 Entering Gaussian System, Link 0=g09
 Input=/home/scratch/M_H2O_4_cuadrado_plano/Opt/Fe2_cuadrado_planp_cc-pvtz-def2-tzv_1.gjf
 Output=/home/scratch/M_H2O_4_cuadrado_plano/Opt/Fe2_cuadrado_planp_cc-pvtz-def2-tzv_1.log
 Initial command:
 /opt/g09/l1.exe "/home/scratch/Gau-67112.inp" -scrdir="/home/scratch/"
 Entering Link 1 = /opt/g09/l1.exe PID=     67115.
  
 Copyright (c) 1988,1990,1992,1993,1995,1998,2003,2009,2015,
            Gaussian, Inc.  All Rights Reserved.
  
 This is part of the Gaussian(R) 09 program.  It is based on
 the Gaussian(R) 03 system (copyright 2003, Gaussian, Inc.),
 the Gaussian(R) 98 system (copyright 1998, Gaussian, Inc.),
 the Gaussian(R) 94 system (copyright 1995, Gaussian, Inc.),
 the Gaussian 92(TM) system (copyright 1992, Gaussian, Inc.),
 the Gaussian 90(TM) system (copyright 1990, Gaussian, Inc.),
 the Gaussian 88(TM) system (copyright 1988, Gaussian, Inc.),
 the Gaussian 86(TM) system (copyright 1986, Carnegie Mellon
 University), and the Gaussian 82(TM) system (copyright 1983,
 Carnegie Mellon University). Gaussian is a federally registered
 trademark of Gaussian, Inc.
  
 This software contains proprietary and confidential information,
 including trade secrets, belonging to Gaussian, Inc.
  
 This software is provided under written license and may be
 used, copied, transmitted, or stored only in accord with that
 written license.
  
 The following legend is applicable only to US Government
 contracts under FAR:
  
                    RESTRICTED RIGHTS LEGEND
  
 Use, reproduction and disclosure by the US Government is
 subject to restrictions as set forth in subparagraphs (a)
 and (c) of the Commercial Computer Software - Restricted
 Rights clause in FAR 52.227-19.
  
 Gaussian, Inc.
 340 Quinnipiac St., Bldg. 40, Wallingford CT 06492
  
  
 ---------------------------------------------------------------
 Warning -- This program may not be used in any manner that
 competes with the business of Gaussian, Inc. or will provide
 assistance to any competitor of Gaussian, Inc.  The licensee
 of this program is prohibited from giving any competitor of
 Gaussian, Inc. access to this program.  By using this program,
 the user acknowledges that Gaussian, Inc. is engaged in the
 business of creating and licensing software in the field of
 computational chemistry and represents and warrants to the
 licensee that it is not a competitor of Gaussian, Inc. and that
 it will not use this program in any manner prohibited above.
 ---------------------------------------------------------------
  

 Cite this work as:
 Gaussian 09, Revision E.01,
 M. J. Frisch, G. W. Trucks, H. B. Schlegel, G. E. Scuseria, 
 M. A. Robb, J. R. Cheeseman, G. Scalmani, V. Barone, B. Mennucci, 
 G. A. Petersson, H. Nakatsuji, M. Caricato, X. Li, H. P. Hratchian, 
 A. F. Izmaylov, J. Bloino, G. Zheng, J. L. Sonnenberg, M. Hada, 
 M. Ehara, K. Toyota, R. Fukuda, J. Hasegawa, M. Ishida, T. Nakajima, 
 Y. Honda, O. Kitao, H. Nakai, T. Vreven, J. A. Montgomery, Jr., 
 J. E. Peralta, F. Ogliaro, M. Bearpark, J. J. Heyd, E. Brothers, 
 K. N. Kudin, V. N. Staroverov, T. Keith, R. Kobayashi, J. Normand, 
 K. Raghavachari, A. Rendell, J. C. Burant, S. S. Iyengar, J. Tomasi, 
 M. Cossi, N. Rega, J. M. Millam, M. Klene, J. E. Knox, J. B. Cross, 
 V. Bakken, C. Adamo, J. Jaramillo, R. Gomperts, R. E. Stratmann, 
 O. Yazyev, A. J. Austin, R. Cammi, C. Pomelli, J. W. Ochterski, 
 R. L. Martin, K. Morokuma, V. G. Zakrzewski, G. A. Voth, 
 P. Salvador, J. J. Dannenberg, S. Dapprich, A. D. Daniels, 
 O. Farkas, J. B. Foresman, J. V. Ortiz, J. Cioslowski, 
 and D. J. Fox, Gaussian, Inc., Wallingford CT, 2013.
 
 ******************************************
 Gaussian 09:  EM64L-G09RevE.01 30-Nov-2015
                 8-Aug-2024 
 ******************************************
 %chk=Fe2_cuadrado_planp_cc-pvtz-def2-tzv_1.chk
 ------------------------------------------------------------------
 # opt pbepbe/cc-pvtz/def2tzv pop=full geom=connectivity output=wfx
 ------------------------------------------------------------------
 1/14=-1,18=20,19=15,26=3,38=1,57=2/1,3;
 2/9=110,12=2,17=6,18=5,40=1/2;
 3/5=16,6=1,11=2,16=1,25=1,30=1,71=1,74=1009,82=44/1,2,3;
 4//1;
 5/5=2,38=5/2;
 6/7=3,28=1/1;
 7//1,2,3,16;
 1/14=-1,18=20,19=15,26=3/3(2);
 2/9=110/2;
 99/6=200/99;
 2/9=110/2;
 3/5=16,6=1,11=2,16=1,25=1,30=1,71=1,74=1009,82=44/1,2,3;
 4/5=5,16=3,69=1/1;
 5/5=2,38=5/2;
 7//1,2,3,16;
 1/14=-1,18=20,19=15,26=3/3(-5);
 2/9=110/2;
 6/7=3,19=2,28=1/1;
 99/6=200,9=1/99;
 -------------------------------------
 Fe2_cuadrado_plano_cc-pvtz-def2-tzv_1
 -------------------------------------
 Symbolic Z-matrix:
 Charge =  2 Multiplicity = 1
 Fe                   -1   -0.00035   0.00034  -0.00024 
 O                    -1   -1.81992   0.00082   0.00006 
 H                    0    -2.3984    0.00238  -0.79183 
 O                    -1   -0.00088  -1.82013   0.00015 
 H                    0     0.79253  -2.3995    0.00109 
 O                    -1    1.82008  -0.00154   0.00006 
 H                    0     2.39828  -0.00123   0.79215 
 O                    -1    0.00148   1.81987   0.00015 
 H                    0    -0.79109   2.40047   0.00042 
 H                    0     2.39872  -0.00174  -0.7917 
 H                    0     0.79547   2.39849  -0.0001 
 H                    0    -0.79407  -2.39981   0.00065 
 H                    0    -2.39835   0.00002   0.79199 
 

 GradGradGradGradGradGradGradGradGradGradGradGradGradGradGradGradGradGrad
 Berny optimization.
 Initialization pass.
                           ----------------------------
                           !    Initial Parameters    !
                           ! (Angstroms and Degrees)  !
 --------------------------                            --------------------------
 ! Name  Definition              Value          Derivative Info.                !
 --------------------------------------------------------------------------------
 ! X1    R(1,-1)                -0.0004         Frozen                          !
 ! Y1    R(1,-2)                 0.0003         Frozen                          !
 ! Z1    R(1,-3)                -0.0002         Frozen                          !
 ! X2    R(2,-1)                -1.8199         Frozen                          !
 ! Y2    R(2,-2)                 0.0008         Frozen                          !
 ! Z2    R(2,-3)                 0.0001         Frozen                          !
 ! X4    R(4,-1)                -0.0009         Frozen                          !
 ! Y4    R(4,-2)                -1.8201         Frozen                          !
 ! Z4    R(4,-3)                 0.0002         Frozen                          !
 ! X6    R(6,-1)                 1.8201         Frozen                          !
 ! Y6    R(6,-2)                -0.0015         Frozen                          !
 ! Z6    R(6,-3)                 0.0001         Frozen                          !
 ! X8    R(8,-1)                 0.0015         Frozen                          !
 ! Y8    R(8,-2)                 1.8199         Frozen                          !
 ! Z8    R(8,-3)                 0.0002         Frozen                          !
 ! R1    R(2,3)                  0.9807         estimate D2E/DX2                !
 ! R2    R(2,13)                 0.9807         estimate D2E/DX2                !
 ! R3    R(4,5)                  0.9824         estimate D2E/DX2                !
 ! R4    R(4,12)                 0.9824         estimate D2E/DX2                !
 ! R5    R(6,7)                  0.9807         estimate D2E/DX2                !
 ! R6    R(6,10)                 0.9807         estimate D2E/DX2                !
 ! R7    R(8,9)                  0.9825         estimate D2E/DX2                !
 ! R8    R(8,11)                 0.9825         estimate D2E/DX2                !
 ! A1    A(1,2,3)              126.1385         estimate D2E/DX2                !
 ! A2    A(1,2,13)             126.1544         estimate D2E/DX2                !
 ! A3    A(3,2,13)             107.7071         estimate D2E/DX2                !
 ! A4    A(1,4,5)              126.1216         estimate D2E/DX2                !
 ! A5    A(1,4,12)             126.1766         estimate D2E/DX2                !
 ! A6    A(5,4,12)             107.7018         estimate D2E/DX2                !
 ! A7    A(1,6,7)              126.1378         estimate D2E/DX2                !
 ! A8    A(1,6,10)             126.1506         estimate D2E/DX2                !
 ! A9    A(7,6,10)             107.7116         estimate D2E/DX2                !
 ! A10   A(1,8,9)              126.1675         estimate D2E/DX2                !
 ! A11   A(1,8,11)             126.14           estimate D2E/DX2                !
 ! A12   A(9,8,11)             107.6925         estimate D2E/DX2                !
 ! D1    D(4,1,2,3)            -90.1143         estimate D2E/DX2                !
 ! D2    D(4,1,2,13)            89.9196         estimate D2E/DX2                !
 ! D3    D(8,1,2,3)             89.9101         estimate D2E/DX2                !
 ! D4    D(8,1,2,13)           -90.056          estimate D2E/DX2                !
 ! D5    D(3,2,6,7)            179.8644         estimate D2E/DX2                !
 ! D6    D(3,2,6,10)            -0.0738         estimate D2E/DX2                !
 ! D7    D(13,2,6,7)            -0.1338         estimate D2E/DX2                !
 ! D8    D(13,2,6,10)          179.928          estimate D2E/DX2                !
 ! D9    D(2,1,4,5)           -179.9317         estimate D2E/DX2                !
 ! D10   D(2,1,4,12)            -0.0178         estimate D2E/DX2                !
 ! D11   D(6,1,4,5)              0.0494         estimate D2E/DX2                !
 ! D12   D(6,1,4,12)           179.9633         estimate D2E/DX2                !
 ! D13   D(5,4,8,9)           -179.9131         estimate D2E/DX2                !
 ! D14   D(5,4,8,11)             0.0861         estimate D2E/DX2                !
 ! D15   D(12,4,8,9)            -0.017          estimate D2E/DX2                !
 ! D16   D(12,4,8,11)          179.9822         estimate D2E/DX2                !
 ! D17   D(4,1,6,7)            -90.0534         estimate D2E/DX2                !
 ! D18   D(4,1,6,10)            90.0405         estimate D2E/DX2                !
 ! D19   D(8,1,6,7)             89.9222         estimate D2E/DX2                !
 ! D20   D(8,1,6,10)           -89.9839         estimate D2E/DX2                !
 ! D21   D(2,1,8,9)              0.0008         estimate D2E/DX2                !
 ! D22   D(2,1,8,11)          -179.9821         estimate D2E/DX2                !
 ! D23   D(6,1,8,9)           -179.9803         estimate D2E/DX2                !
 ! D24   D(6,1,8,11)             0.0368         estimate D2E/DX2                !
 --------------------------------------------------------------------------------
 Trust Radius=3.00D-01 FncErr=1.00D-07 GrdErr=1.00D-06
 Number of steps in this run=     69 maximum allowed number of steps=    100.
 GradGradGradGradGradGradGradGradGradGradGradGradGradGradGradGradGradGrad

                          Input orientation:                          
 ---------------------------------------------------------------------
 Center     Atomic      Atomic             Coordinates (Angstroms)
 Number     Number       Type             X           Y           Z
 ---------------------------------------------------------------------
      1         26           0       -0.000352    0.000337   -0.000236
      2          8           0       -1.819919    0.000815    0.000065
      3          1           0       -2.398399    0.002379   -0.791835
      4          8           0       -0.000880   -1.820129    0.000152
      5          1           0        0.792527   -2.399502    0.001090
      6          8           0        1.820081   -0.001539    0.000065
      7          1           0        2.398279   -0.001229    0.792147
      8          8           0        0.001475    1.819871    0.000152
      9          1           0       -0.791087    2.400470    0.000418
     10          1           0        2.398718   -0.001744   -0.791701
     11          1           0        0.795470    2.398490   -0.000103
     12          1           0       -0.794072   -2.399807    0.000653
     13          1           0       -2.398352    0.000025    0.791988
 ---------------------------------------------------------------------
                    Distance matrix (angstroms):
                    1          2          3          4          5
     1  Fe   0.000000
     2  O    1.819567   0.000000
     3  H    2.525324   0.980687   0.000000
     4  O    1.820466   2.573857   3.113981   0.000000
     5  H    2.527427   3.547731   4.071826   0.982429   0.000000
     6  O    1.820434   3.640000   4.292166   2.573551   2.608849
     7  H    2.526123   4.291921   5.051448   3.113136   2.992645
     8  O    1.819534   2.574187   3.112863   3.640000   4.292886
     9  H    2.527033   2.610907   2.993652   4.293935   5.054459
    10  H    2.526253   4.292295   4.797118   3.113137   2.992927
    11  H    2.526750   3.548112   4.070501   4.293124   4.797993
    12  H    2.527981   2.610623   2.995396   0.982437   1.586599
    13  H    2.525475   0.980677   1.583825   3.112529   4.070007
                    6          7          8          9         10
     6  O    0.000000
     7  H    0.980666   0.000000
     8  O    2.573880   3.112607   0.000000
     9  H    3.547935   4.070263   0.982471   0.000000
    10  H    0.980670   1.583848   3.113211   4.070987   0.000000
    11  H    2.609591   2.992542   0.982460   1.586558   2.993018
    12  H    3.547603   4.070718   4.294017   4.800278   4.070926
    13  H    4.292123   4.796631   3.114163   2.995333   5.051728
                   11         12         13
    11  H    0.000000
    12  H    5.054730   0.000000
    13  H    4.071921   2.993179   0.000000
 Stoichiometry    FeH8O4(2+)
 Framework group  C1[X(FeH8O4)]
 Deg. of freedom    33
 Full point group                 C1      NOp   1
 Largest Abelian subgroup         C1      NOp   1
 Largest concise Abelian subgroup C1      NOp   1
                         Standard orientation:                         
 ---------------------------------------------------------------------
 Center     Atomic      Atomic             Coordinates (Angstroms)
 Number     Number       Type             X           Y           Z
 ---------------------------------------------------------------------
      1         26           0        0.000352   -0.000337   -0.000235
      2          8           0        1.819919   -0.000815    0.000065
      3          1           0        2.398399   -0.002379   -0.791835
      4          8           0        0.000880    1.820129    0.000152
      5          1           0       -0.792527    2.399502    0.001090
      6          8           0       -1.820081    0.001539    0.000065
      7          1           0       -2.398279    0.001229    0.792147
      8          8           0       -0.001475   -1.819871    0.000152
      9          1           0        0.791087   -2.400470    0.000418
     10          1           0       -2.398718    0.001744   -0.791701
     11          1           0       -0.795470   -2.398490   -0.000103
     12          1           0        0.794072    2.399807    0.000653
     13          1           0        2.398352   -0.000025    0.791988
 ---------------------------------------------------------------------
 Rotational constants (GHZ):      3.8372560      3.7653513      1.9373188
 Standard basis: CC-pVTZ (5D, 7F)
 There are   344 symmetry adapted cartesian basis functions of A   symmetry.
 There are   300 symmetry adapted basis functions of A   symmetry.
   300 basis functions,   695 primitive gaussians,   344 cartesian basis functions
    32 alpha electrons       32 beta electrons
       nuclear repulsion energy       425.8974016556 Hartrees.
 NAtoms=   13 NActive=   13 NUniq=   13 SFac= 1.00D+00 NAtFMM=   60 NAOKFM=F Big=F
 Integral buffers will be    131072 words long.
 Raffenetti 2 integral format.
 Two-electron integral symmetry is turned on.
 Standard density basis: def2TZV (5D, 7F)
   110 Density fitting functions
 There are   110 symmetry adapted density basis functions of A   symmetry.
 One-electron integrals computed using PRISM.
 NBasis=   300 RedAO= T EigKep=  9.53D-04  NBF=   300
 NBsUse=   300 1.00D-06 EigRej= -1.00D+00 NBFU=   300
 NBasis=      300 NBas6D=      344 NTT=       45150   NTT6D=    59340
 NDBShl=       68 NDBF=        110 NDBF6D=      113  NNucDB=        0
 IDenFi=        2 ISolve=        0 FullAP=F BlkAPC=T NucTyp=        0
 TolInv= 1.00D-06 TolIt=  1.00D-10 IR12=0.
 FoFCou: FMM=F IPFlag=           0 FMFlag=           0 FMFlg1=           0
         NFxFlg=           0 DoJE=F BraDBF=T KetDBF=T FulRan=T
         wScrn=  0.000000 ICntrl=     600 IOpCl=  3 I1Cent=           6 NGrid=           0
         NMat0=    1 NMatS0=    113 NMatT0=    0 NMatD0=    1 NMtDS0=    0 NMtDT0=    0
 Petite list used in FoFCou.
 DBF EigKep=  5.54D-04 EigRej= -1.00D+00
 NDBF=    110  NBFD=   110
 NRank=   110 NBFDU=   110
 S*AI*S=  8.47506235059    
 ExpMin= 3.14D-02 ExpMax= 4.32D+06 ExpMxC= 4.91D+03 IAcc=3 IRadAn=         5 AccDes= 0.00D+00
 Harris functional with IExCor= 1009 and IRadAn=       5 diagonalized for initial guess.
 HarFok:  IExCor= 1009 AccDes= 0.00D+00 IRadAn=         5 IDoV= 1 UseB2=F ITyADJ=14
 ICtDFT=  3500011 ScaDFX=  1.000000  1.000000  1.000000  1.000000
 FoFCou: FMM=F IPFlag=           0 FMFlag=      100000 FMFlg1=           0
         NFxFlg=           0 DoJE=T BraDBF=F KetDBF=T FulRan=T
         wScrn=  0.000000 ICntrl=     500 IOpCl=  0 I1Cent=   200000004 NGrid=           0
         NMat0=    1 NMatS0=      1 NMatT0=    0 NMatD0=    1 NMtDS0=    0 NMtDT0=    0
 Petite list used in FoFCou.
 Requested convergence on RMS density matrix=1.00D-08 within 128 cycles.
 Requested convergence on MAX density matrix=1.00D-06.
 Requested convergence on             energy=1.00D-06.
 No special actions if energy rises.
 FoFCou: FMM=F IPFlag=           0 FMFlag=      100000 FMFlg1=           0
         NFxFlg=           0 DoJE=T BraDBF=T KetDBF=F FulRan=T
         wScrn=  0.000000 ICntrl=     500 IOpCl=  0 I1Cent=           5 NGrid=           0
         NMat0=    1 NMatS0=      1 NMatT0=    0 NMatD0=    1 NMtDS0=    0 NMtDT0=    0
 Symmetry not used in FoFCou.
 EnCoef did   100 forward-backward iterations
 SCF Done:  E(RPBE-PBE) =  -1569.36077356     A.U. after   19 cycles
            NFock= 19  Conv=0.21D-08     -V/T= 2.0020

 **********************************************************************

            Population analysis using the SCF density.

 **********************************************************************

 Orbital symmetries:
       Occupied  (A) (A) (A) (A) (A) (A) (A) (A) (A) (A) (A) (A)
                 (A) (A) (A) (A) (A) (A) (A) (A) (A) (A) (A) (A)
                 (A) (A) (A) (A) (A) (A) (A) (A)
       Virtual   (A) (A) (A) (A) (A) (A) (A) (A) (A) (A) (A) (A)
                 (A) (A) (A) (A) (A) (A) (A) (A) (A) (A) (A) (A)
                 (A) (A) (A) (A) (A) (A) (A) (A) (A) (A) (A) (A)
                 (A) (A) (A) (A) (A) (A) (A) (A) (A) (A) (A) (A)
                 (A) (A) (A) (A) (A) (A) (A) (A) (A) (A) (A) (A)
                 (A) (A) (A) (A) (A) (A) (A) (A) (A) (A) (A) (A)
                 (A) (A) (A) (A) (A) (A) (A) (A) (A) (A) (A) (A)
                 (A) (A) (A) (A) (A) (A) (A) (A) (A) (A) (A) (A)
                 (A) (A) (A) (A) (A) (A) (A) (A) (A) (A) (A) (A)
                 (A) (A) (A) (A) (A) (A) (A) (A) (A) (A) (A) (A)
                 (A) (A) (A) (A) (A) (A) (A) (A) (A) (A) (A) (A)
                 (A) (A) (A) (A) (A) (A) (A) (A) (A) (A) (A) (A)
                 (A) (A) (A) (A) (A) (A) (A) (A) (A) (A) (A) (A)
                 (A) (A) (A) (A) (A) (A) (A) (A) (A) (A) (A) (A)
                 (A) (A) (A) (A) (A) (A) (A) (A) (A) (A) (A) (A)
                 (A) (A) (A) (A) (A) (A) (A) (A) (A) (A) (A) (A)
                 (A) (A) (A) (A) (A) (A) (A) (A) (A) (A) (A) (A)
                 (A) (A) (A) (A) (A) (A) (A) (A) (A) (A) (A) (A)
                 (A) (A) (A) (A) (A) (A) (A) (A) (A) (A) (A) (A)
                 (A) (A) (A) (A) (A) (A) (A) (A) (A) (A) (A) (A)
                 (A) (A) (A) (A) (A) (A) (A) (A) (A) (A) (A) (A)
                 (A) (A) (A) (A) (A) (A) (A) (A) (A) (A) (A) (A)
                 (A) (A) (A) (A)
 The electronic state is 1-A.
 Alpha  occ. eigenvalues -- -255.01666 -30.13796 -26.09769 -26.08330 -26.07916
 Alpha  occ. eigenvalues --  -19.18781 -19.18762 -19.16281 -19.16277  -3.70139
 Alpha  occ. eigenvalues --   -2.51633  -2.48214  -2.47985  -1.35466  -1.34675
 Alpha  occ. eigenvalues --   -1.33123  -1.32972  -0.90190  -0.89682  -0.88327
 Alpha  occ. eigenvalues --   -0.88079  -0.85583  -0.81814  -0.80627  -0.77914
 Alpha  occ. eigenvalues --   -0.71161  -0.70148  -0.70006  -0.68437  -0.56435
 Alpha  occ. eigenvalues --   -0.56246  -0.55606
 Alpha virt. eigenvalues --   -0.50521  -0.42060  -0.37014  -0.32958  -0.32621
 Alpha virt. eigenvalues --   -0.30754  -0.28357  -0.25480  -0.25443  -0.25245
 Alpha virt. eigenvalues --   -0.24553  -0.21836  -0.16055  -0.15015  -0.13157
 Alpha virt. eigenvalues --   -0.11677  -0.10907  -0.10781  -0.07472  -0.06446
 Alpha virt. eigenvalues --   -0.06377  -0.06269  -0.01884   0.00026   0.02201
 Alpha virt. eigenvalues --    0.07806   0.08743   0.09968   0.12048   0.12296
 Alpha virt. eigenvalues --    0.13389   0.14389   0.19829   0.20948   0.22631
 Alpha virt. eigenvalues --    0.24172   0.24209   0.24973   0.27821   0.27855
 Alpha virt. eigenvalues --    0.29123   0.29198   0.29639   0.31319   0.31383
 Alpha virt. eigenvalues --    0.32257   0.33047   0.34355   0.37042   0.39718
 Alpha virt. eigenvalues --    0.42387   0.51990   0.56512   0.56656   0.58503
 Alpha virt. eigenvalues --    0.60145   0.64725   0.67402   0.69934   0.71264
 Alpha virt. eigenvalues --    0.71388   0.71596   0.79869   0.80773   0.81853
 Alpha virt. eigenvalues --    0.87008   0.88469   0.89494   0.91418   0.92597
 Alpha virt. eigenvalues --    0.92683   0.94790   1.01148   1.03670   1.08026
 Alpha virt. eigenvalues --    1.08077   1.11391   1.13002   1.15114   1.15253
 Alpha virt. eigenvalues --    1.15347   1.22947   1.23701   1.28641   1.30652
 Alpha virt. eigenvalues --    1.31734   1.37624   1.42485   1.43838   1.48139
 Alpha virt. eigenvalues --    1.53860   1.57831   1.60129   1.63484   1.64039
 Alpha virt. eigenvalues --    1.68522   1.71875   1.77969   1.81976   1.84799
 Alpha virt. eigenvalues --    1.85280   1.86380   1.91206   2.00626   2.01928
 Alpha virt. eigenvalues --    2.04795   2.05602   2.15294   2.27951   2.31223
 Alpha virt. eigenvalues --    2.32203   2.37045   2.37264   2.39273   2.45033
 Alpha virt. eigenvalues --    2.58930   2.61898   2.63389   2.65989   2.66295
 Alpha virt. eigenvalues --    2.76814   2.78871   2.78940   2.79241   2.79721
 Alpha virt. eigenvalues --    2.80770   2.80775   2.83967   2.84646   2.86778
 Alpha virt. eigenvalues --    2.87119   2.87249   2.90365   2.90727   2.97058
 Alpha virt. eigenvalues --    2.99024   2.99649   3.02884   3.03767   3.08991
 Alpha virt. eigenvalues --    3.09743   3.09790   3.12292   3.15593   3.18448
 Alpha virt. eigenvalues --    3.18787   3.18800   3.31544   3.34378   3.36355
 Alpha virt. eigenvalues --    3.37741   3.38314   3.40258   3.40802   3.41156
 Alpha virt. eigenvalues --    3.42001   3.51071   3.52275   3.53882   3.54820
 Alpha virt. eigenvalues --    3.54880   3.56023   3.56467   3.57360   3.65495
 Alpha virt. eigenvalues --    3.72720   3.72883   3.75158   3.78948   3.79798
 Alpha virt. eigenvalues --    3.81199   3.83834   3.85801   3.87309   3.87720
 Alpha virt. eigenvalues --    3.88043   3.91158   3.92453   3.92847   4.10457
 Alpha virt. eigenvalues --    4.11589   4.15372   4.15648   4.22076   4.22501
 Alpha virt. eigenvalues --    4.29548   4.37519   4.40698   4.45330   4.51264
 Alpha virt. eigenvalues --    4.52306   4.55135   4.55698   4.59277   4.66950
 Alpha virt. eigenvalues --    4.68342   4.68825   4.76307   4.91237   5.02256
 Alpha virt. eigenvalues --    5.05354   5.09178   5.14751   5.34277   5.52739
 Alpha virt. eigenvalues --    5.54274   5.56415   5.76518   5.81852   5.82560
 Alpha virt. eigenvalues --    5.83331   5.83732   5.83975   5.88198   5.88358
 Alpha virt. eigenvalues --    5.91513   5.99573   5.99633   6.00515   6.02214
 Alpha virt. eigenvalues --    6.10415   6.12534   6.14292   6.15254   6.17460
 Alpha virt. eigenvalues --    6.17681   6.18712   6.19223   6.19638   6.20162
 Alpha virt. eigenvalues --    6.24533   6.26245   6.45507   6.46662   6.49094
 Alpha virt. eigenvalues --    6.49951   6.50042   6.53055   6.61339   6.64988
 Alpha virt. eigenvalues --    6.76529   6.77204   6.82300   6.82544   7.22748
 Alpha virt. eigenvalues --    7.23517   7.33754   7.34844   7.78444   7.80143
 Alpha virt. eigenvalues --    7.82066   7.85156   7.88059   7.91589   7.95771
 Alpha virt. eigenvalues --    8.15595   8.16736   8.24969   8.30895   8.31604
 Alpha virt. eigenvalues --    8.32996   8.45464   8.88455   8.95038  12.13064
 Alpha virt. eigenvalues --   12.25310  12.32960  12.83035
     Molecular Orbital Coefficients:
                           1         2         3         4         5
                           O         O         O         O         O
     Eigenvalues --  -255.01666 -30.13796 -26.09769 -26.08330 -26.07916
   1 1   Fe 1S          1.00061  -0.30416  -0.00000  -0.00000   0.00000
   2        2S         -0.00204   1.04700   0.00000   0.00000  -0.00000
   3        3S         -0.00020  -0.00228  -0.00000   0.00000   0.00000
   4        4S         -0.00244  -0.00676   0.00000  -0.00000   0.00000
   5        5S         -0.00213  -0.00523   0.00000  -0.00000   0.00000
   6        6S          0.00011  -0.00025   0.00000  -0.00000  -0.00000
   7        7S         -0.00020  -0.00053   0.00000  -0.00000  -0.00000
   8        8PX        -0.00000   0.00000   0.00065  -0.00003   1.00085
   9        8PY         0.00000  -0.00000   1.00074   0.00023  -0.00065
  10        8PZ         0.00000  -0.00000  -0.00023   1.00079   0.00003
  11        9PX        -0.00000   0.00000   0.00000  -0.00000   0.00515
  12        9PY        -0.00000   0.00000   0.00486   0.00000  -0.00000
  13        9PZ         0.00000   0.00000  -0.00000   0.00356   0.00000
  14       10PX        -0.00000   0.00000   0.00000  -0.00000   0.00664
  15       10PY        -0.00000  -0.00000   0.00604   0.00000  -0.00000
  16       10PZ         0.00000   0.00000  -0.00000   0.00391   0.00000
  17       11PX         0.00000  -0.00000   0.00000  -0.00000   0.00169
  18       11PY         0.00000   0.00000   0.00103   0.00000  -0.00000
  19       11PZ        -0.00000  -0.00000  -0.00000   0.00188   0.00000
  20       12PX        -0.00000  -0.00000   0.00000  -0.00000   0.00341
  21       12PY         0.00000   0.00000   0.00309   0.00000  -0.00000
  22       12PZ         0.00000   0.00000  -0.00000   0.00285   0.00000
  23       13PX        -0.00000  -0.00000  -0.00000   0.00000  -0.00029
  24       13PY        -0.00000   0.00000  -0.00035   0.00000   0.00000
  25       13PZ         0.00000  -0.00000  -0.00000  -0.00034  -0.00000
  26       14D 0       -0.00009  -0.00016  -0.00000  -0.00000   0.00000
  27       14D+1       -0.00000  -0.00000   0.00000  -0.00000   0.00000
  28       14D-1        0.00000   0.00000   0.00000   0.00000  -0.00000
  29       14D+2        0.00001   0.00048   0.00000  -0.00000   0.00000
  30       14D-2       -0.00000  -0.00000  -0.00000  -0.00000   0.00000
  31       15D 0        0.00023   0.00065   0.00000   0.00000  -0.00000
  32       15D+1        0.00000   0.00000  -0.00000  -0.00000  -0.00000
  33       15D-1       -0.00000  -0.00000  -0.00000  -0.00000   0.00000
  34       15D+2       -0.00003  -0.00068  -0.00000   0.00000  -0.00000
  35       15D-2        0.00000   0.00000   0.00000  -0.00000  -0.00000
  36       16D 0        0.00003  -0.00010   0.00000  -0.00000  -0.00000
  37       16D+1        0.00000  -0.00000  -0.00000   0.00000  -0.00000
  38       16D-1       -0.00000  -0.00000  -0.00000  -0.00000  -0.00000
  39       16D+2       -0.00001  -0.00054   0.00000   0.00000   0.00000
  40       16D-2        0.00000   0.00000   0.00000  -0.00000  -0.00000
  41       17D 0       -0.00003   0.00014   0.00000  -0.00000   0.00000
  42       17D+1       -0.00000   0.00000  -0.00000  -0.00000   0.00000
  43       17D-1        0.00000   0.00000  -0.00000  -0.00000   0.00000
  44       17D+2        0.00016   0.00032   0.00000   0.00000  -0.00000
  45       17D-2       -0.00000  -0.00000   0.00000   0.00000   0.00000
  46       18F 0       -0.00000  -0.00000   0.00000   0.00005   0.00000
  47       18F+1        0.00000   0.00000  -0.00000   0.00000   0.00008
  48       18F-1       -0.00000   0.00000  -0.00038   0.00000  -0.00000
  49       18F+2       -0.00000   0.00000   0.00000   0.00016  -0.00000
  50       18F-2       -0.00000  -0.00000   0.00000  -0.00000  -0.00000
  51       18F+3        0.00000   0.00000   0.00000  -0.00000  -0.00037
  52       18F-3        0.00000   0.00000   0.00004   0.00000   0.00000
  53       19F 0        0.00000   0.00000  -0.00000   0.00004  -0.00000
  54       19F+1       -0.00000   0.00000   0.00000  -0.00000   0.00010
  55       19F-1        0.00000   0.00000   0.00024  -0.00000  -0.00000
  56       19F+2        0.00000  -0.00000  -0.00000  -0.00006   0.00000
  57       19F-2        0.00000   0.00000  -0.00000   0.00000   0.00000
  58       19F+3       -0.00000  -0.00000   0.00000   0.00000   0.00002
  59       19F-3       -0.00000  -0.00000   0.00010  -0.00000  -0.00000
  60       20G 0       -0.00000   0.00003  -0.00000   0.00000   0.00000
  61       20G+1       -0.00000   0.00000   0.00000   0.00000   0.00000
  62       20G-1        0.00000   0.00000   0.00000   0.00000  -0.00000
  63       20G+2       -0.00000   0.00010  -0.00000   0.00000  -0.00000
  64       20G-2        0.00000  -0.00000   0.00000  -0.00000  -0.00000
  65       20G+3        0.00000  -0.00000  -0.00000  -0.00000   0.00000
  66       20G-3        0.00000   0.00000   0.00000  -0.00000  -0.00000
  67       20G+4       -0.00000  -0.00009  -0.00000  -0.00000   0.00000
  68       20G-4        0.00000   0.00000  -0.00000  -0.00000  -0.00000
  69 2   O  1S          0.00001  -0.00001   0.00000   0.00000  -0.00001
  70        2S          0.00003  -0.00007  -0.00000   0.00000  -0.00005
  71        3S         -0.00002  -0.00004  -0.00000  -0.00000  -0.00005
  72        4S          0.00014   0.00096   0.00000   0.00000   0.00052
  73        5PX         0.00001   0.00002   0.00000   0.00000   0.00002
  74        5PY         0.00000   0.00000  -0.00001  -0.00000   0.00000
  75        5PZ         0.00000   0.00000  -0.00000  -0.00003   0.00000
  76        6PX        -0.00001  -0.00002  -0.00000  -0.00000  -0.00011
  77        6PY        -0.00000  -0.00000   0.00004   0.00000  -0.00000
  78        6PZ        -0.00000  -0.00000   0.00000   0.00019  -0.00000
  79        7PX        -0.00020  -0.00086  -0.00000  -0.00000  -0.00169
  80        7PY         0.00000   0.00000   0.00004   0.00000   0.00000
  81        7PZ        -0.00000  -0.00000   0.00000   0.00044  -0.00000
  82        8D 0       -0.00000  -0.00000  -0.00000   0.00000  -0.00004
  83        8D+1       -0.00000  -0.00000  -0.00000   0.00002   0.00000
  84        8D-1       -0.00000  -0.00000   0.00000   0.00000  -0.00000
  85        8D+2       -0.00000  -0.00003  -0.00000  -0.00000   0.00002
  86        8D-2       -0.00000  -0.00000   0.00004   0.00000  -0.00000
  87        9D 0        0.00002   0.00004  -0.00000   0.00000   0.00023
  88        9D+1        0.00000   0.00000   0.00000  -0.00000  -0.00000
  89        9D-1        0.00000   0.00000  -0.00000  -0.00000   0.00000
  90        9D+2        0.00003   0.00015   0.00000   0.00000   0.00001
  91        9D-2       -0.00000   0.00000  -0.00016   0.00000   0.00000
  92       10F 0        0.00000   0.00000   0.00000   0.00001  -0.00000
  93       10F+1        0.00001   0.00003   0.00000   0.00000   0.00003
  94       10F-1       -0.00000  -0.00000  -0.00001   0.00000  -0.00000
  95       10F+2        0.00000  -0.00000   0.00000   0.00001  -0.00000
  96       10F-2        0.00000   0.00000   0.00000  -0.00000   0.00000
  97       10F+3       -0.00000  -0.00002   0.00000  -0.00000  -0.00002
  98       10F-3        0.00000   0.00000   0.00003   0.00000   0.00000
  99 3   H  1S          0.00000  -0.00000  -0.00000  -0.00004  -0.00002
 100        2S         -0.00004  -0.00013   0.00000   0.00043   0.00020
 101        3S         -0.00001   0.00005   0.00000   0.00008   0.00017
 102        4PX        -0.00000  -0.00001   0.00000   0.00001  -0.00000
 103        4PY        -0.00000  -0.00000   0.00002   0.00000  -0.00000
 104        4PZ        -0.00001  -0.00004  -0.00000   0.00002  -0.00004
 105        5PX         0.00007   0.00022  -0.00000  -0.00020   0.00039
 106        5PY         0.00000  -0.00000  -0.00002   0.00000   0.00000
 107        5PZ         0.00001   0.00004   0.00000   0.00009   0.00027
 108        6D 0        0.00001   0.00001  -0.00000   0.00000   0.00009
 109        6D+1        0.00001   0.00002  -0.00000  -0.00003   0.00004
 110        6D-1       -0.00000  -0.00000   0.00002   0.00000   0.00000
 111        6D+2       -0.00001  -0.00003   0.00000   0.00003  -0.00008
 112        6D-2        0.00000   0.00000   0.00001  -0.00000   0.00000
 113 4   O  1S          0.00001   0.00000  -0.00001   0.00000   0.00000
 114        2S          0.00002  -0.00000  -0.00010   0.00000   0.00000
 115        3S         -0.00002  -0.00003  -0.00005  -0.00000   0.00000
 116        4S          0.00044   0.00111   0.00061   0.00000  -0.00000
 117        5PX         0.00000   0.00000   0.00000   0.00000  -0.00003
 118        5PY         0.00000  -0.00000   0.00003   0.00000  -0.00000
 119        5PZ        -0.00000  -0.00000  -0.00000  -0.00001  -0.00000
 120        6PX        -0.00000  -0.00000  -0.00000  -0.00000   0.00012
 121        6PY         0.00002   0.00010  -0.00014  -0.00000   0.00000
 122        6PZ         0.00000   0.00000   0.00000   0.00004   0.00000
 123        7PX        -0.00000  -0.00000  -0.00000  -0.00000   0.00007
 124        7PY        -0.00012  -0.00026  -0.00174  -0.00000   0.00000
 125        7PZ         0.00000   0.00000  -0.00000  -0.00004  -0.00000
 126        8D 0        0.00000   0.00001   0.00001  -0.00000  -0.00000
 127        8D+1        0.00000   0.00000   0.00000   0.00000  -0.00000
 128        8D-1        0.00000   0.00000   0.00000   0.00001  -0.00000
 129        8D+2       -0.00000   0.00000  -0.00003  -0.00000   0.00000
 130        8D-2       -0.00000  -0.00000   0.00000   0.00000   0.00005
 131        9D 0       -0.00005  -0.00011  -0.00013  -0.00000   0.00000
 132        9D+1       -0.00000  -0.00000  -0.00000  -0.00000   0.00000
 133        9D-1        0.00000   0.00000  -0.00000  -0.00007   0.00000
 134        9D+2        0.00002   0.00006   0.00012   0.00000  -0.00000
 135        9D-2        0.00000   0.00000  -0.00000  -0.00000  -0.00024
 136       10F 0       -0.00000  -0.00000   0.00000  -0.00001  -0.00000
 137       10F+1        0.00000   0.00000   0.00000   0.00000   0.00000
 138       10F-1        0.00000   0.00000   0.00002   0.00000  -0.00000
 139       10F+2        0.00000   0.00000   0.00000  -0.00001  -0.00000
 140       10F-2       -0.00000  -0.00000  -0.00000  -0.00000  -0.00000
 141       10F+3       -0.00000  -0.00000  -0.00000   0.00000   0.00001
 142       10F-3        0.00001   0.00003   0.00004   0.00000  -0.00000
 143 5   H  1S          0.00000   0.00001  -0.00002   0.00000  -0.00008
 144        2S         -0.00014  -0.00034   0.00025  -0.00000   0.00009
 145        3S          0.00000   0.00004   0.00022   0.00000   0.00008
 146        4PX        -0.00001  -0.00003  -0.00004  -0.00000  -0.00002
 147        4PY         0.00000   0.00000  -0.00001   0.00000   0.00003
 148        4PZ         0.00000   0.00000   0.00000   0.00001   0.00000
 149        5PX        -0.00003  -0.00008   0.00027  -0.00000  -0.00004
 150        5PY         0.00009   0.00020   0.00035   0.00000  -0.00015
 151        5PZ         0.00000   0.00000  -0.00000  -0.00001   0.00000
 152        6D 0        0.00001   0.00003   0.00002   0.00000  -0.00002
 153        6D+1        0.00000   0.00000  -0.00000   0.00001   0.00000
 154        6D-1       -0.00000  -0.00000  -0.00000   0.00001   0.00000
 155        6D+2        0.00001   0.00002   0.00011   0.00000  -0.00005
 156        6D-2        0.00001   0.00003   0.00003   0.00000  -0.00001
 157 6   O  1S          0.00001  -0.00001  -0.00000   0.00000   0.00001
 158        2S          0.00003  -0.00007  -0.00000  -0.00000   0.00005
 159        3S         -0.00002  -0.00004  -0.00000  -0.00000   0.00005
 160        4S          0.00014   0.00096   0.00000  -0.00000  -0.00052
 161        5PX        -0.00001  -0.00002  -0.00000  -0.00000   0.00002
 162        5PY         0.00000   0.00000  -0.00001   0.00000  -0.00000
 163        5PZ        -0.00000   0.00000  -0.00000  -0.00003   0.00000
 164        6PX         0.00001   0.00002   0.00000   0.00000  -0.00011
 165        6PY        -0.00000  -0.00000   0.00004  -0.00000   0.00000
 166        6PZ         0.00000  -0.00000   0.00000   0.00019  -0.00000
 167        7PX         0.00020   0.00086   0.00000   0.00000  -0.00169
 168        7PY        -0.00000  -0.00000   0.00004  -0.00000   0.00000
 169        7PZ         0.00000  -0.00000   0.00000   0.00044  -0.00000
 170        8D 0       -0.00000  -0.00000   0.00000  -0.00000   0.00004
 171        8D+1        0.00000   0.00000   0.00000  -0.00002   0.00000
 172        8D-1        0.00000   0.00000   0.00000   0.00000  -0.00000
 173        8D+2       -0.00000  -0.00003  -0.00000  -0.00000  -0.00002
 174        8D-2        0.00000   0.00000  -0.00004  -0.00000  -0.00000
 175        9D 0        0.00002   0.00004  -0.00000   0.00000  -0.00023
 176        9D+1       -0.00000  -0.00000  -0.00000   0.00000  -0.00000
 177        9D-1       -0.00000  -0.00000  -0.00000  -0.00000   0.00000
 178        9D+2        0.00003   0.00016   0.00000   0.00000  -0.00001
 179        9D-2       -0.00000  -0.00000   0.00016   0.00000   0.00000
 180       10F 0        0.00000   0.00000  -0.00000   0.00001  -0.00000
 181       10F+1       -0.00001  -0.00003  -0.00000  -0.00000   0.00003
 182       10F-1       -0.00000  -0.00000  -0.00001  -0.00000   0.00000
 183       10F+2       -0.00000  -0.00000   0.00000   0.00001   0.00000
 184       10F-2        0.00000   0.00000  -0.00000  -0.00000  -0.00000
 185       10F+3        0.00000   0.00002   0.00000   0.00000  -0.00002
 186       10F-3       -0.00000  -0.00000   0.00003   0.00000  -0.00000
 187 7   H  1S          0.00000  -0.00000  -0.00000   0.00004   0.00002
 188        2S         -0.00004  -0.00013  -0.00000  -0.00043  -0.00020
 189        3S         -0.00001   0.00005   0.00000  -0.00008  -0.00017
 190        4PX         0.00000   0.00001   0.00000   0.00001  -0.00000
 191        4PY        -0.00000  -0.00000   0.00002   0.00000   0.00000
 192        4PZ         0.00001   0.00004   0.00000   0.00002  -0.00004
 193        5PX        -0.00007  -0.00022  -0.00000  -0.00020   0.00039
 194        5PY         0.00000   0.00000  -0.00002   0.00000  -0.00000
 195        5PZ        -0.00001  -0.00004   0.00000   0.00009   0.00027
 196        6D 0        0.00001   0.00001  -0.00000  -0.00000  -0.00009
 197        6D+1        0.00001   0.00002  -0.00000   0.00003  -0.00004
 198        6D-1       -0.00000   0.00000  -0.00002  -0.00000   0.00000
 199        6D+2       -0.00001  -0.00003  -0.00000  -0.00003   0.00008
 200        6D-2        0.00000   0.00000  -0.00001   0.00000  -0.00000
 201 8   O  1S          0.00001   0.00000   0.00001  -0.00000  -0.00000
 202        2S          0.00002  -0.00000   0.00010  -0.00000  -0.00000
 203        3S         -0.00002  -0.00003   0.00005  -0.00000   0.00000
 204        4S          0.00044   0.00111  -0.00061   0.00000   0.00000
 205        5PX         0.00000   0.00000  -0.00000  -0.00000  -0.00003
 206        5PY        -0.00000   0.00000   0.00003  -0.00000   0.00000
 207        5PZ         0.00000  -0.00000  -0.00000  -0.00001   0.00000
 208        6PX        -0.00000  -0.00000   0.00000   0.00000   0.00012
 209        6PY        -0.00002  -0.00010  -0.00014   0.00000  -0.00000
 210        6PZ        -0.00000   0.00000   0.00000   0.00004  -0.00000
 211        7PX         0.00000   0.00000  -0.00000   0.00000   0.00008
 212        7PY         0.00012   0.00026  -0.00175  -0.00000  -0.00000
 213        7PZ        -0.00000  -0.00000   0.00000  -0.00004   0.00000
 214        8D 0        0.00000   0.00001  -0.00001   0.00000  -0.00000
 215        8D+1       -0.00000  -0.00000   0.00000  -0.00000   0.00000
 216        8D-1        0.00000   0.00000   0.00000  -0.00001  -0.00000
 217        8D+2       -0.00000   0.00000   0.00003   0.00000  -0.00000
 218        8D-2        0.00000   0.00000  -0.00000   0.00000  -0.00005
 219        9D 0       -0.00005  -0.00011   0.00013  -0.00000   0.00000
 220        9D+1        0.00000   0.00000  -0.00000   0.00000  -0.00000
 221        9D-1       -0.00000  -0.00000   0.00000   0.00007   0.00000
 222        9D+2        0.00002   0.00006  -0.00012  -0.00000   0.00000
 223        9D-2       -0.00000  -0.00000   0.00000  -0.00000   0.00024
 224       10F 0        0.00000   0.00000  -0.00000  -0.00001  -0.00000
 225       10F+1       -0.00000   0.00000  -0.00000  -0.00000   0.00000
 226       10F-1       -0.00000  -0.00000   0.00002  -0.00000   0.00000
 227       10F+2        0.00000   0.00000   0.00000  -0.00001   0.00000
 228       10F-2       -0.00000  -0.00000   0.00000   0.00000  -0.00000
 229       10F+3       -0.00000  -0.00000   0.00000  -0.00000   0.00001
 230       10F-3       -0.00001  -0.00003   0.00004  -0.00000  -0.00000
 231 9   H  1S          0.00000   0.00001   0.00002   0.00000   0.00008
 232        2S         -0.00014  -0.00034  -0.00026  -0.00000  -0.00010
 233        3S          0.00000   0.00004  -0.00022   0.00000  -0.00008
 234        4PX         0.00001   0.00003  -0.00004   0.00000  -0.00002
 235        4PY        -0.00000  -0.00000  -0.00001  -0.00000   0.00003
 236        4PZ        -0.00000  -0.00000   0.00000   0.00001   0.00000
 237        5PX         0.00003   0.00008   0.00027   0.00000  -0.00004
 238        5PY        -0.00009  -0.00020   0.00035  -0.00000  -0.00015
 239        5PZ         0.00000   0.00000  -0.00000  -0.00001  -0.00000
 240        6D 0        0.00001   0.00003  -0.00002   0.00000   0.00002
 241        6D+1       -0.00000  -0.00000  -0.00000  -0.00001   0.00000
 242        6D-1        0.00000   0.00000  -0.00000  -0.00001   0.00000
 243        6D+2        0.00001   0.00002  -0.00011  -0.00000   0.00005
 244        6D-2        0.00001   0.00003  -0.00003   0.00000   0.00001
 245 10  H  1S          0.00000  -0.00000  -0.00000  -0.00004   0.00002
 246        2S         -0.00004  -0.00013  -0.00000   0.00043  -0.00020
 247        3S         -0.00001   0.00005   0.00000   0.00008  -0.00017
 248        4PX         0.00000   0.00001   0.00000  -0.00001  -0.00000
 249        4PY        -0.00000  -0.00000   0.00002  -0.00000   0.00000
 250        4PZ        -0.00001  -0.00004  -0.00000   0.00002   0.00004
 251        5PX        -0.00007  -0.00022  -0.00000   0.00020   0.00039
 252        5PY         0.00000   0.00000  -0.00002  -0.00000  -0.00000
 253        5PZ         0.00001   0.00004   0.00000   0.00009  -0.00027
 254        6D 0        0.00001   0.00001  -0.00000   0.00000  -0.00009
 255        6D+1       -0.00001  -0.00002   0.00000   0.00003   0.00004
 256        6D-1        0.00000  -0.00000   0.00002  -0.00000  -0.00000
 257        6D+2       -0.00001  -0.00003  -0.00000   0.00003   0.00008
 258        6D-2        0.00000   0.00000  -0.00001  -0.00000  -0.00000
 259 11  H  1S          0.00000   0.00001   0.00002  -0.00000  -0.00008
 260        2S         -0.00014  -0.00034  -0.00025   0.00000   0.00010
 261        3S          0.00000   0.00004  -0.00022   0.00000   0.00008
 262        4PX        -0.00001  -0.00003   0.00004   0.00000  -0.00002
 263        4PY        -0.00000  -0.00000  -0.00001   0.00000  -0.00003
 264        4PZ        -0.00000  -0.00000   0.00000   0.00001  -0.00000
 265        5PX        -0.00003  -0.00008  -0.00027   0.00000  -0.00004
 266        5PY        -0.00009  -0.00020   0.00035   0.00000   0.00015
 267        5PZ         0.00000  -0.00000  -0.00000  -0.00001  -0.00000
 268        6D 0        0.00001   0.00003  -0.00002  -0.00000  -0.00002
 269        6D+1       -0.00000  -0.00000  -0.00000   0.00001  -0.00000
 270        6D-1       -0.00000  -0.00000  -0.00000  -0.00001   0.00000
 271        6D+2        0.00001   0.00002  -0.00011  -0.00000  -0.00005
 272        6D-2       -0.00001  -0.00003   0.00003   0.00000   0.00001
 273 12  H  1S          0.00000   0.00001  -0.00002   0.00000   0.00008
 274        2S         -0.00014  -0.00034   0.00025   0.00000  -0.00009
 275        3S          0.00000   0.00004   0.00022  -0.00000  -0.00008
 276        4PX         0.00001   0.00003   0.00004   0.00000  -0.00002
 277        4PY         0.00000   0.00000  -0.00001  -0.00000  -0.00003
 278        4PZ         0.00000   0.00000   0.00000   0.00001  -0.00000
 279        5PX         0.00003   0.00008  -0.00027  -0.00000  -0.00004
 280        5PY         0.00009   0.00020   0.00035   0.00000   0.00015
 281        5PZ         0.00000   0.00000  -0.00000  -0.00001   0.00000
 282        6D 0        0.00001   0.00003   0.00002   0.00000   0.00002
 283        6D+1       -0.00000  -0.00000  -0.00000  -0.00001   0.00000
 284        6D-1       -0.00000  -0.00000  -0.00000   0.00001  -0.00000
 285        6D+2        0.00001   0.00002   0.00011   0.00000   0.00005
 286        6D-2       -0.00001  -0.00003  -0.00003  -0.00000  -0.00001
 287 13  H  1S          0.00000  -0.00000   0.00000   0.00004  -0.00002
 288        2S         -0.00004  -0.00013  -0.00000  -0.00043   0.00020
 289        3S         -0.00001   0.00005  -0.00000  -0.00008   0.00017
 290        4PX        -0.00000  -0.00001  -0.00000  -0.00001  -0.00000
 291        4PY         0.00000   0.00000   0.00002   0.00000   0.00000
 292        4PZ         0.00001   0.00004   0.00000   0.00002   0.00004
 293        5PX         0.00007   0.00022   0.00000   0.00020   0.00039
 294        5PY        -0.00000  -0.00000  -0.00002  -0.00000  -0.00000
 295        5PZ        -0.00001  -0.00004   0.00000   0.00009  -0.00027
 296        6D 0        0.00001   0.00001   0.00000  -0.00000   0.00009
 297        6D+1       -0.00001  -0.00002  -0.00000  -0.00003  -0.00004
 298        6D-1        0.00000   0.00000  -0.00002  -0.00000   0.00000
 299        6D+2       -0.00001  -0.00003  -0.00000  -0.00003  -0.00008
 300        6D-2       -0.00000  -0.00000   0.00001  -0.00000   0.00000
                           6         7         8         9        10
                           O         O         O         O         O
     Eigenvalues --   -19.18781 -19.18762 -19.16281 -19.16277  -3.70139
   1 1   Fe 1S          0.00000   0.00000   0.00001   0.00001   0.11211
   2        2S          0.00002   0.00002   0.00002   0.00002  -0.43627
   3        3S          0.00008   0.00008   0.00009   0.00009   0.52649
   4        4S          0.00201   0.00200   0.00188   0.00186  -0.00551
   5        5S          0.00047   0.00047   0.00026   0.00025  -0.00217
   6        6S          0.00011   0.00011   0.00010   0.00009   0.62728
   7        7S          0.00022   0.00022   0.00030   0.00030  -0.00067
   8        8PX         0.00000   0.00000   0.00000  -0.00000  -0.00000
   9        8PY         0.00000  -0.00000  -0.00000  -0.00000   0.00000
  10        8PZ        -0.00000   0.00000   0.00000  -0.00000   0.00000
  11        9PX         0.00000   0.00000  -0.00033   0.00032   0.00001
  12        9PY         0.00055  -0.00055  -0.00000  -0.00000  -0.00001
  13        9PZ        -0.00000  -0.00000  -0.00000  -0.00000  -0.00000
  14       10PX         0.00000   0.00000  -0.00014   0.00014   0.00000
  15       10PY         0.00118  -0.00118  -0.00000  -0.00000  -0.00001
  16       10PZ        -0.00000  -0.00000  -0.00000  -0.00000   0.00000
  17       11PX         0.00000   0.00000   0.00115  -0.00115  -0.00000
  18       11PY         0.00037  -0.00037   0.00000   0.00000   0.00000
  19       11PZ         0.00000  -0.00000  -0.00000   0.00000  -0.00000
  20       12PX         0.00000   0.00000  -0.00008   0.00008  -0.00001
  21       12PY         0.00012  -0.00012  -0.00000  -0.00000   0.00000
  22       12PZ        -0.00000  -0.00000   0.00000  -0.00000   0.00000
  23       13PX        -0.00000   0.00000   0.00025  -0.00025  -0.00000
  24       13PY        -0.00011   0.00011  -0.00000  -0.00000   0.00000
  25       13PZ         0.00000   0.00000   0.00000   0.00000  -0.00000
  26       14D 0        0.00012   0.00012   0.00010   0.00010  -0.00264
  27       14D+1       -0.00000   0.00000  -0.00000   0.00000  -0.00000
  28       14D-1        0.00000   0.00000  -0.00000   0.00000  -0.00001
  29       14D+2        0.00024   0.00024  -0.00023  -0.00023  -0.00543
  30       14D-2       -0.00000   0.00000   0.00000   0.00000   0.00001
  31       15D 0       -0.00042  -0.00042  -0.00040  -0.00040   0.00415
  32       15D+1        0.00000  -0.00000   0.00000  -0.00000   0.00000
  33       15D-1       -0.00000  -0.00000  -0.00000  -0.00000   0.00000
  34       15D+2       -0.00086  -0.00085   0.00076   0.00076   0.00503
  35       15D-2        0.00000   0.00000  -0.00000  -0.00000  -0.00001
  36       16D 0       -0.00002  -0.00002  -0.00002  -0.00002  -0.00168
  37       16D+1        0.00000  -0.00000  -0.00000  -0.00000  -0.00000
  38       16D-1       -0.00000  -0.00000   0.00000  -0.00000  -0.00000
  39       16D+2       -0.00005  -0.00005   0.00005   0.00005  -0.00376
  40       16D-2        0.00000  -0.00000  -0.00000  -0.00000   0.00000
  41       17D 0       -0.00042  -0.00042  -0.00032  -0.00032   0.00047
  42       17D+1        0.00000  -0.00000   0.00000  -0.00000   0.00000
  43       17D-1        0.00000  -0.00000   0.00000  -0.00000  -0.00000
  44       17D+2        0.00024   0.00024   0.00081   0.00081   0.00260
  45       17D-2       -0.00000  -0.00000  -0.00000  -0.00000  -0.00000
  46       18F 0        0.00000   0.00000   0.00000   0.00000  -0.00000
  47       18F+1       -0.00000  -0.00000   0.00004  -0.00004   0.00000
  48       18F-1       -0.00004   0.00004   0.00000   0.00000   0.00000
  49       18F+2        0.00000   0.00000  -0.00000  -0.00000   0.00000
  50       18F-2        0.00000   0.00000  -0.00000  -0.00000  -0.00000
  51       18F+3       -0.00000   0.00000  -0.00004   0.00004  -0.00000
  52       18F-3       -0.00005   0.00005   0.00000  -0.00000   0.00000
  53       19F 0       -0.00000  -0.00000  -0.00000  -0.00000   0.00000
  54       19F+1        0.00000   0.00000  -0.00019   0.00019  -0.00000
  55       19F-1        0.00017  -0.00017  -0.00000  -0.00000  -0.00000
  56       19F+2       -0.00000  -0.00000   0.00000   0.00000   0.00000
  57       19F-2       -0.00000  -0.00000   0.00000   0.00000   0.00000
  58       19F+3        0.00000  -0.00000   0.00018  -0.00018   0.00000
  59       19F-3        0.00021  -0.00021  -0.00000   0.00000   0.00000
  60       20G 0        0.00002   0.00002   0.00002   0.00002   0.00140
  61       20G+1        0.00000  -0.00000  -0.00000   0.00000   0.00000
  62       20G-1        0.00000  -0.00000  -0.00000   0.00000   0.00001
  63       20G+2        0.00003   0.00003  -0.00003  -0.00003   0.00330
  64       20G-2       -0.00000  -0.00000   0.00000   0.00000  -0.00000
  65       20G+3       -0.00000   0.00000   0.00000  -0.00000  -0.00000
  66       20G-3        0.00000  -0.00000  -0.00000   0.00000   0.00000
  67       20G+4        0.00004   0.00004   0.00004   0.00004  -0.00258
  68       20G-4       -0.00000  -0.00000  -0.00000  -0.00000   0.00001
  69 2   O  1S          0.00005   0.00005   0.97336   0.00033  -0.00052
  70        2S          0.00013   0.00013  -0.00691   0.00010   0.00097
  71        3S         -0.00003  -0.00003   0.05108   0.00001  -0.00001
  72        4S         -0.00009  -0.00008   0.00567  -0.00120   0.00184
  73        5PX        -0.00000  -0.00000   0.00085   0.00001  -0.00051
  74        5PY        -0.00002   0.00002  -0.00000   0.00000   0.00000
  75        5PZ         0.00000  -0.00000   0.00000  -0.00000  -0.00000
  76        6PX         0.00002   0.00002   0.00167  -0.00007  -0.00078
  77        6PY         0.00007  -0.00007  -0.00000   0.00000   0.00000
  78        6PZ        -0.00000   0.00000   0.00000   0.00000  -0.00000
  79        7PX         0.00012   0.00012   0.00261   0.00016  -0.00238
  80        7PY        -0.00021   0.00021  -0.00000   0.00000   0.00000
  81        7PZ        -0.00000   0.00000   0.00000   0.00000  -0.00000
  82        8D 0       -0.00001  -0.00001   0.00011   0.00000  -0.00001
  83        8D+1        0.00000  -0.00000   0.00000  -0.00000   0.00000
  84        8D-1       -0.00000  -0.00000   0.00000   0.00000  -0.00000
  85        8D+2       -0.00000  -0.00000   0.00019   0.00001   0.00003
  86        8D-2        0.00001  -0.00001  -0.00000   0.00000  -0.00000
  87        9D 0        0.00005   0.00005   0.00101  -0.00004  -0.00049
  88        9D+1       -0.00000   0.00000  -0.00000   0.00000   0.00000
  89        9D-1        0.00000   0.00000   0.00000  -0.00000   0.00000
  90        9D+2        0.00004   0.00004  -0.00008  -0.00007   0.00103
  91        9D-2       -0.00007   0.00007  -0.00000   0.00000  -0.00000
  92       10F 0        0.00000  -0.00000   0.00000   0.00000   0.00000
  93       10F+1        0.00001   0.00001   0.00036  -0.00001   0.00019
  94       10F-1       -0.00001   0.00001  -0.00000   0.00000  -0.00000
  95       10F+2       -0.00000   0.00000   0.00000   0.00000  -0.00000
  96       10F-2        0.00000   0.00000   0.00000  -0.00000   0.00000
  97       10F+3       -0.00002  -0.00002   0.00005  -0.00000  -0.00019
  98       10F-3       -0.00000   0.00000  -0.00000   0.00000   0.00000
  99 3   H  1S          0.00001   0.00001   0.00032   0.00001   0.00008
 100        2S         -0.00017  -0.00017  -0.00395   0.00025  -0.00026
 101        3S         -0.00010  -0.00010  -0.00075  -0.00004  -0.00005
 102        4PX         0.00000   0.00000   0.00038  -0.00001  -0.00014
 103        4PY        -0.00001   0.00001  -0.00000   0.00000  -0.00000
 104        4PZ        -0.00001  -0.00001  -0.00037   0.00001  -0.00013
 105        5PX         0.00007   0.00007   0.00133  -0.00010   0.00070
 106        5PY         0.00007  -0.00007  -0.00000   0.00000  -0.00000
 107        5PZ        -0.00004  -0.00004  -0.00169   0.00011   0.00002
 108        6D 0        0.00000   0.00000  -0.00045   0.00001  -0.00008
 109        6D+1        0.00001   0.00001   0.00115  -0.00002   0.00004
 110        6D-1        0.00002  -0.00002  -0.00000   0.00000  -0.00000
 111        6D+2       -0.00001  -0.00001  -0.00042   0.00001  -0.00008
 112        6D-2       -0.00001   0.00001   0.00000  -0.00000   0.00000
 113 4   O  1S          0.00082   0.97334   0.00001   0.00001  -0.00059
 114        2S          0.00011  -0.00711   0.00015   0.00015   0.00062
 115        3S          0.00003   0.05107  -0.00004  -0.00004  -0.00031
 116        4S         -0.00059   0.00615   0.00068   0.00068   0.01093
 117        5PX         0.00000  -0.00000  -0.00002   0.00002  -0.00000
 118        5PY         0.00000   0.00085   0.00000   0.00000  -0.00042
 119        5PZ         0.00000   0.00000  -0.00000  -0.00000  -0.00000
 120        6PX        -0.00000  -0.00000   0.00010  -0.00010  -0.00000
 121        6PY        -0.00000   0.00157   0.00002   0.00002  -0.00111
 122        6PZ        -0.00000   0.00000   0.00000   0.00000   0.00000
 123        7PX        -0.00000   0.00000  -0.00039   0.00038  -0.00001
 124        7PY         0.00041   0.00260   0.00035   0.00035  -0.00453
 125        7PZ         0.00000   0.00000   0.00000   0.00000  -0.00000
 126        8D 0       -0.00001  -0.00028  -0.00001  -0.00001   0.00007
 127        8D+1       -0.00000  -0.00000   0.00000  -0.00000   0.00000
 128        8D-1        0.00000   0.00000  -0.00000  -0.00000  -0.00000
 129        8D+2       -0.00000  -0.00002   0.00001   0.00001   0.00004
 130        8D-2       -0.00000   0.00000  -0.00001   0.00001   0.00000
 131        9D 0        0.00004  -0.00037  -0.00001  -0.00001  -0.00159
 132        9D+1        0.00000  -0.00000  -0.00000   0.00000  -0.00000
 133        9D-1       -0.00000   0.00000   0.00000   0.00000   0.00000
 134        9D+2        0.00002   0.00089  -0.00001  -0.00001  -0.00146
 135        9D-2       -0.00000  -0.00000   0.00005  -0.00005   0.00000
 136       10F 0       -0.00000  -0.00000  -0.00000  -0.00000   0.00000
 137       10F+1        0.00000   0.00000  -0.00000   0.00000   0.00000
 138       10F-1        0.00000  -0.00015  -0.00001  -0.00001   0.00021
 139       10F+2       -0.00000   0.00000  -0.00000  -0.00000   0.00000
 140       10F-2        0.00000  -0.00000  -0.00000  -0.00000  -0.00000
 141       10F+3        0.00000  -0.00000   0.00000  -0.00000   0.00000
 142       10F-3       -0.00000   0.00033   0.00001   0.00001   0.00039
 143 5   H  1S          0.00001   0.00030   0.00007   0.00002   0.00009
 144        2S         -0.00002  -0.00381  -0.00055  -0.00021  -0.00209
 145        3S         -0.00009  -0.00055  -0.00003  -0.00021   0.00049
 146        4PX         0.00000  -0.00034   0.00001  -0.00005  -0.00024
 147        4PY        -0.00000   0.00038  -0.00001  -0.00003  -0.00014
 148        4PZ        -0.00000   0.00000  -0.00000   0.00000   0.00000
 149        5PX         0.00000  -0.00166  -0.00016  -0.00010  -0.00060
 150        5PY        -0.00003   0.00119   0.00012   0.00016   0.00153
 151        5PZ        -0.00000   0.00000   0.00000   0.00000   0.00000
 152        6D 0       -0.00000   0.00057   0.00001   0.00003   0.00021
 153        6D+1       -0.00000   0.00000   0.00000   0.00000   0.00000
 154        6D-1        0.00000  -0.00000   0.00000  -0.00000  -0.00000
 155        6D+2       -0.00000  -0.00019  -0.00001  -0.00000  -0.00003
 156        6D-2       -0.00000   0.00112   0.00001   0.00003   0.00012
 157 6   O  1S          0.00005   0.00005  -0.00029   0.97336  -0.00052
 158        2S          0.00013   0.00013   0.00011  -0.00691   0.00097
 159        3S         -0.00003  -0.00003  -0.00002   0.05108  -0.00001
 160        4S         -0.00008  -0.00008  -0.00120   0.00568   0.00185
 161        5PX         0.00000   0.00000  -0.00001  -0.00085   0.00050
 162        5PY        -0.00002   0.00002   0.00000  -0.00000  -0.00000
 163        5PZ        -0.00000   0.00000  -0.00000   0.00000  -0.00000
 164        6PX        -0.00002  -0.00002   0.00007  -0.00167   0.00078
 165        6PY         0.00007  -0.00007  -0.00000   0.00000  -0.00000
 166        6PZ         0.00000  -0.00000   0.00000   0.00000   0.00000
 167        7PX        -0.00012  -0.00012  -0.00016  -0.00261   0.00237
 168        7PY        -0.00021   0.00021   0.00000   0.00000  -0.00000
 169        7PZ         0.00000  -0.00000   0.00000   0.00000   0.00000
 170        8D 0       -0.00001  -0.00001   0.00000   0.00011  -0.00001
 171        8D+1        0.00000   0.00000   0.00000   0.00000  -0.00000
 172        8D-1       -0.00000  -0.00000   0.00000  -0.00000   0.00000
 173        8D+2       -0.00000  -0.00000   0.00001   0.00019   0.00003
 174        8D-2       -0.00001   0.00001  -0.00000  -0.00000  -0.00000
 175        9D 0        0.00005   0.00005  -0.00004   0.00101  -0.00048
 176        9D+1       -0.00000   0.00000  -0.00000   0.00000  -0.00000
 177        9D-1       -0.00000  -0.00000   0.00000  -0.00000  -0.00000
 178        9D+2        0.00004   0.00004  -0.00007  -0.00008   0.00103
 179        9D-2        0.00007  -0.00007   0.00000   0.00000  -0.00000
 180       10F 0        0.00000   0.00000  -0.00000   0.00000   0.00000
 181       10F+1       -0.00001  -0.00001   0.00001  -0.00036  -0.00019
 182       10F-1       -0.00001   0.00001   0.00000  -0.00000   0.00000
 183       10F+2        0.00000  -0.00000   0.00000  -0.00000  -0.00000
 184       10F-2       -0.00000   0.00000  -0.00000   0.00000   0.00000
 185       10F+3        0.00002   0.00002   0.00000  -0.00005   0.00019
 186       10F-3       -0.00000   0.00000  -0.00000   0.00000  -0.00000
 187 7   H  1S          0.00001   0.00001   0.00001   0.00032   0.00008
 188        2S         -0.00017  -0.00017   0.00025  -0.00395  -0.00027
 189        3S         -0.00010  -0.00010  -0.00004  -0.00075  -0.00005
 190        4PX        -0.00000  -0.00000   0.00001  -0.00038   0.00014
 191        4PY        -0.00001   0.00001   0.00000  -0.00000  -0.00000
 192        4PZ         0.00001   0.00001  -0.00001   0.00037   0.00013
 193        5PX        -0.00007  -0.00007   0.00010  -0.00133  -0.00070
 194        5PY         0.00007  -0.00007  -0.00000  -0.00000   0.00000
 195        5PZ         0.00004   0.00004  -0.00011   0.00169  -0.00002
 196        6D 0        0.00000   0.00000   0.00001  -0.00045  -0.00008
 197        6D+1        0.00001   0.00001  -0.00002   0.00115   0.00004
 198        6D-1       -0.00002   0.00002   0.00000   0.00000   0.00000
 199        6D+2       -0.00001  -0.00001   0.00001  -0.00042  -0.00008
 200        6D-2        0.00001  -0.00001  -0.00000  -0.00000   0.00000
 201 8   O  1S          0.97334  -0.00077   0.00001   0.00001  -0.00059
 202        2S         -0.00711   0.00012   0.00015   0.00015   0.00062
 203        3S          0.05108  -0.00005  -0.00004  -0.00004  -0.00031
 204        4S          0.00614  -0.00060   0.00068   0.00068   0.01095
 205        5PX        -0.00000   0.00000  -0.00002   0.00002   0.00000
 206        5PY        -0.00085  -0.00000  -0.00000  -0.00000   0.00042
 207        5PZ        -0.00000   0.00000  -0.00000  -0.00000  -0.00000
 208        6PX        -0.00000  -0.00000   0.00010  -0.00010   0.00000
 209        6PY        -0.00157   0.00000  -0.00002  -0.00002   0.00112
 210        6PZ         0.00000   0.00000   0.00000   0.00000  -0.00000
 211        7PX        -0.00000  -0.00000  -0.00039   0.00039   0.00001
 212        7PY        -0.00261  -0.00041  -0.00035  -0.00035   0.00454
 213        7PZ         0.00000   0.00000   0.00000  -0.00000  -0.00000
 214        8D 0       -0.00028  -0.00000  -0.00001  -0.00001   0.00007
 215        8D+1        0.00000  -0.00000  -0.00000  -0.00000  -0.00000
 216        8D-1       -0.00000   0.00000  -0.00000   0.00000   0.00000
 217        8D+2       -0.00002  -0.00000   0.00001   0.00001   0.00004
 218        8D-2        0.00000   0.00000   0.00001  -0.00001  -0.00000
 219        9D 0       -0.00037   0.00004  -0.00001  -0.00001  -0.00159
 220        9D+1        0.00000  -0.00000   0.00000   0.00000   0.00000
 221        9D-1        0.00000  -0.00000  -0.00000  -0.00000  -0.00000
 222        9D+2        0.00089   0.00002  -0.00001  -0.00001  -0.00146
 223        9D-2       -0.00000   0.00000  -0.00005   0.00005   0.00000
 224       10F 0       -0.00000  -0.00000  -0.00000   0.00000   0.00000
 225       10F+1        0.00000   0.00000  -0.00000   0.00000  -0.00000
 226       10F-1        0.00015  -0.00000   0.00001   0.00001  -0.00021
 227       10F+2       -0.00000   0.00000   0.00000   0.00000   0.00000
 228       10F-2       -0.00000   0.00000  -0.00000  -0.00000  -0.00000
 229       10F+3       -0.00000   0.00000   0.00000  -0.00000  -0.00000
 230       10F-3       -0.00033   0.00000  -0.00001  -0.00001  -0.00039
 231 9   H  1S          0.00030   0.00001   0.00002   0.00007   0.00009
 232        2S         -0.00380  -0.00001  -0.00021  -0.00055  -0.00208
 233        3S         -0.00055  -0.00009  -0.00021  -0.00003   0.00049
 234        4PX         0.00034  -0.00001   0.00005  -0.00001   0.00024
 235        4PY        -0.00038   0.00000   0.00003   0.00001   0.00014
 236        4PZ         0.00000   0.00000   0.00000  -0.00000  -0.00000
 237        5PX         0.00166  -0.00000   0.00010   0.00016   0.00060
 238        5PY        -0.00119   0.00003  -0.00016  -0.00012  -0.00153
 239        5PZ         0.00000  -0.00000  -0.00000   0.00000   0.00000
 240        6D 0        0.00057  -0.00000   0.00003   0.00001   0.00020
 241        6D+1       -0.00000   0.00000   0.00000   0.00000  -0.00000
 242        6D-1        0.00000  -0.00000  -0.00000  -0.00000   0.00000
 243        6D+2       -0.00018  -0.00000  -0.00000  -0.00001  -0.00003
 244        6D-2        0.00113  -0.00001   0.00003   0.00001   0.00012
 245 10  H  1S          0.00001   0.00001   0.00001   0.00032   0.00008
 246        2S         -0.00017  -0.00017   0.00025  -0.00395  -0.00026
 247        3S         -0.00010  -0.00010  -0.00004  -0.00075  -0.00005
 248        4PX        -0.00000  -0.00000   0.00001  -0.00038   0.00014
 249        4PY        -0.00001   0.00001  -0.00000   0.00000  -0.00000
 250        4PZ        -0.00001  -0.00001   0.00001  -0.00037  -0.00013
 251        5PX        -0.00007  -0.00007   0.00010  -0.00133  -0.00070
 252        5PY         0.00007  -0.00007  -0.00000   0.00000   0.00000
 253        5PZ        -0.00004  -0.00004   0.00011  -0.00169   0.00002
 254        6D 0        0.00000   0.00000   0.00001  -0.00045  -0.00008
 255        6D+1       -0.00001  -0.00001   0.00002  -0.00116  -0.00004
 256        6D-1        0.00002  -0.00002  -0.00000   0.00000  -0.00000
 257        6D+2       -0.00001  -0.00001   0.00001  -0.00042  -0.00008
 258        6D-2        0.00001  -0.00001  -0.00000   0.00000   0.00000
 259 11  H  1S          0.00030   0.00001   0.00007   0.00002   0.00009
 260        2S         -0.00380  -0.00001  -0.00055  -0.00021  -0.00208
 261        3S         -0.00055  -0.00009  -0.00003  -0.00021   0.00049
 262        4PX        -0.00034   0.00001   0.00001  -0.00005  -0.00024
 263        4PY        -0.00038   0.00000   0.00001   0.00003   0.00014
 264        4PZ        -0.00000   0.00000   0.00000  -0.00000  -0.00000
 265        5PX        -0.00166   0.00000  -0.00016  -0.00010  -0.00060
 266        5PY        -0.00119   0.00003  -0.00012  -0.00016  -0.00153
 267        5PZ        -0.00000  -0.00000  -0.00000   0.00000   0.00000
 268        6D 0        0.00057  -0.00000   0.00001   0.00003   0.00021
 269        6D+1       -0.00000  -0.00000  -0.00000  -0.00000  -0.00000
 270        6D-1       -0.00000  -0.00000   0.00000   0.00000  -0.00000
 271        6D+2       -0.00019  -0.00000  -0.00001  -0.00000  -0.00003
 272        6D-2       -0.00112   0.00001  -0.00001  -0.00003  -0.00012
 273 12  H  1S          0.00001   0.00030   0.00002   0.00007   0.00009
 274        2S         -0.00002  -0.00381  -0.00021  -0.00055  -0.00208
 275        3S         -0.00009  -0.00055  -0.00021  -0.00003   0.00049
 276        4PX        -0.00000   0.00034   0.00005  -0.00001   0.00024
 277        4PY        -0.00000   0.00038  -0.00003  -0.00001  -0.00014
 278        4PZ        -0.00000   0.00000  -0.00000  -0.00000   0.00000
 279        5PX        -0.00000   0.00166   0.00010   0.00016   0.00060
 280        5PY        -0.00003   0.00119   0.00016   0.00012   0.00152
 281        5PZ        -0.00000   0.00000   0.00000   0.00000   0.00000
 282        6D 0       -0.00000   0.00057   0.00003   0.00001   0.00020
 283        6D+1        0.00000  -0.00000  -0.00000   0.00000  -0.00000
 284        6D-1        0.00000  -0.00000  -0.00000   0.00000  -0.00000
 285        6D+2       -0.00000  -0.00018  -0.00000  -0.00001  -0.00003
 286        6D-2        0.00000  -0.00112  -0.00003  -0.00001  -0.00012
 287 13  H  1S          0.00001   0.00001   0.00032   0.00001   0.00008
 288        2S         -0.00017  -0.00017  -0.00395   0.00025  -0.00026
 289        3S         -0.00010  -0.00010  -0.00075  -0.00004  -0.00005
 290        4PX         0.00000   0.00000   0.00038  -0.00001  -0.00014
 291        4PY        -0.00001   0.00001   0.00000   0.00000   0.00000
 292        4PZ         0.00001   0.00001   0.00037  -0.00001   0.00013
 293        5PX         0.00007   0.00007   0.00133  -0.00010   0.00070
 294        5PY         0.00007  -0.00007   0.00000  -0.00000  -0.00000
 295        5PZ         0.00004   0.00004   0.00169  -0.00011  -0.00002
 296        6D 0        0.00000   0.00000  -0.00045   0.00001  -0.00008
 297        6D+1       -0.00001  -0.00001  -0.00115   0.00002  -0.00004
 298        6D-1       -0.00002   0.00002  -0.00000   0.00000  -0.00000
 299        6D+2       -0.00001  -0.00001  -0.00042   0.00001  -0.00008
 300        6D-2       -0.00001   0.00001  -0.00000   0.00000   0.00000
                          11        12        13        14        15
                           O         O         O         O         O
     Eigenvalues --    -2.51633  -2.48214  -2.47985  -1.35466  -1.34675
   1 1   Fe 1S         -0.00000  -0.00000   0.00000  -0.00618  -0.00007
   2        2S          0.00001   0.00000  -0.00001   0.02175   0.00024
   3        3S         -0.00001  -0.00000   0.00001  -0.04914  -0.00055
   4        4S          0.00000   0.00000   0.00002   0.08946   0.00107
   5        5S          0.00001  -0.00000   0.00001   0.08539   0.00100
   6        6S         -0.00001  -0.00000   0.00001  -0.02018  -0.00021
   7        7S          0.00000  -0.00000   0.00000   0.00786   0.00009
   8        8PX         0.00023  -0.00008   0.35889   0.00001   0.00002
   9        8PY         0.35961   0.00026  -0.00023  -0.00031   0.02577
  10        8PZ        -0.00026   0.35987   0.00009   0.00001   0.00000
  11        9PX        -0.00036   0.00013  -0.55351  -0.00000  -0.00003
  12        9PY        -0.55253  -0.00040   0.00036   0.00052  -0.04476
  13        9PZ         0.00040  -0.55465  -0.00013  -0.00001  -0.00000
  14       10PX         0.00003  -0.00001   0.05218   0.00001  -0.00002
  15       10PY         0.05186   0.00004  -0.00003   0.00026  -0.02412
  16       10PZ        -0.00003   0.05247   0.00001  -0.00001  -0.00000
  17       11PX         0.00000  -0.00000   0.00991   0.00000  -0.00001
  18       11PY         0.00692   0.00001  -0.00001   0.00023  -0.01991
  19       11PZ        -0.00000   0.00615   0.00000  -0.00000   0.00000
  20       12PX         0.00039  -0.00014   0.60296   0.00001   0.00003
  21       12PY         0.60473   0.00044  -0.00039  -0.00058   0.04844
  22       12PZ        -0.00043   0.60493   0.00014   0.00001   0.00000
  23       13PX        -0.00000   0.00000  -0.00088   0.00000   0.00000
  24       13PY        -0.00078  -0.00000   0.00000  -0.00006   0.00568
  25       13PZ         0.00000  -0.00096  -0.00000  -0.00000  -0.00000
  26       14D 0       -0.00000   0.00000   0.00000  -0.01394  -0.00015
  27       14D+1        0.00000  -0.00000   0.00000  -0.00000  -0.00000
  28       14D-1        0.00000   0.00000  -0.00000  -0.00000   0.00001
  29       14D+2       -0.00000  -0.00000  -0.00001  -0.01037  -0.00004
  30       14D-2       -0.00000  -0.00000  -0.00000   0.00001  -0.00002
  31       15D 0        0.00000  -0.00000  -0.00000  -0.01251  -0.00015
  32       15D+1       -0.00000   0.00000   0.00000  -0.00000   0.00000
  33       15D-1       -0.00000   0.00000  -0.00000   0.00000   0.00001
  34       15D+2       -0.00000  -0.00000   0.00000  -0.00828  -0.00003
  35       15D-2       -0.00000  -0.00000   0.00000   0.00001  -0.00001
  36       16D 0       -0.00000   0.00000   0.00000  -0.01550  -0.00017
  37       16D+1        0.00000  -0.00000   0.00000  -0.00000   0.00000
  38       16D-1        0.00000   0.00000   0.00000  -0.00000   0.00001
  39       16D+2       -0.00000  -0.00000  -0.00000  -0.01107  -0.00004
  40       16D-2       -0.00000   0.00000   0.00000   0.00001  -0.00002
  41       17D 0        0.00000  -0.00000  -0.00000   0.00689   0.00008
  42       17D+1       -0.00000   0.00000   0.00000  -0.00000   0.00000
  43       17D-1        0.00000  -0.00000   0.00000  -0.00000  -0.00000
  44       17D+2        0.00000   0.00000   0.00000   0.00437   0.00000
  45       17D-2       -0.00000  -0.00000  -0.00000  -0.00001   0.00001
  46       18F 0       -0.00001  -0.00070  -0.00000  -0.00000  -0.00000
  47       18F+1        0.00000   0.00000  -0.00140  -0.00000   0.00000
  48       18F-1        0.00451  -0.00000   0.00000   0.00000   0.00002
  49       18F+2       -0.00000  -0.00167  -0.00000  -0.00000  -0.00000
  50       18F-2       -0.00000   0.00000   0.00000  -0.00000  -0.00000
  51       18F+3       -0.00000  -0.00000   0.00525   0.00000  -0.00000
  52       18F-3       -0.00029  -0.00000  -0.00001   0.00001  -0.00044
  53       19F 0       -0.00001  -0.00085  -0.00000  -0.00000  -0.00000
  54       19F+1        0.00000   0.00000  -0.00133  -0.00000  -0.00000
  55       19F-1        0.00478  -0.00000   0.00000   0.00004  -0.00343
  56       19F+2       -0.00000  -0.00218  -0.00000  -0.00000  -0.00000
  57       19F-2       -0.00000   0.00000   0.00000   0.00000  -0.00000
  58       19F+3       -0.00000  -0.00000   0.00480   0.00001  -0.00001
  59       19F-3       -0.00022  -0.00000  -0.00001   0.00005  -0.00384
  60       20G 0        0.00000   0.00000  -0.00000   0.00038   0.00000
  61       20G+1        0.00000   0.00000   0.00000  -0.00000  -0.00000
  62       20G-1        0.00000  -0.00000   0.00000   0.00000  -0.00000
  63       20G+2        0.00000  -0.00000   0.00000   0.00027   0.00000
  64       20G-2        0.00000  -0.00000  -0.00000  -0.00000   0.00000
  65       20G+3        0.00000  -0.00000  -0.00000  -0.00000   0.00000
  66       20G-3        0.00000  -0.00000  -0.00000   0.00000  -0.00000
  67       20G+4        0.00000  -0.00000  -0.00000   0.00052   0.00001
  68       20G-4       -0.00000  -0.00000  -0.00000  -0.00000   0.00000
  69 2   O  1S          0.00000  -0.00000   0.00362  -0.05334  -0.00092
  70        2S         -0.00000   0.00000  -0.00686   0.12023   0.00209
  71        3S         -0.00000   0.00000  -0.00112   0.03629   0.00063
  72        4S          0.00000   0.00000  -0.01073   0.07792   0.00133
  73        5PX         0.00000  -0.00000   0.00346   0.00795   0.00015
  74        5PY        -0.00046  -0.00000  -0.00000  -0.00003   0.00249
  75        5PZ         0.00000  -0.00050   0.00000   0.00000   0.00000
  76        6PX         0.00000  -0.00000   0.00506   0.00751   0.00016
  77        6PY        -0.00072  -0.00000  -0.00000  -0.00004   0.00345
  78        6PZ         0.00000  -0.00084   0.00000  -0.00000  -0.00000
  79        7PX        -0.00000  -0.00000   0.00129   0.00211   0.00002
  80        7PY        -0.00006  -0.00000  -0.00000  -0.00002   0.00194
  81        7PZ         0.00000  -0.00065  -0.00000  -0.00000  -0.00002
  82        8D 0        0.00000   0.00000   0.00009   0.00036   0.00001
  83        8D+1       -0.00000   0.00005  -0.00000   0.00000   0.00000
  84        8D-1        0.00000   0.00000  -0.00000   0.00000   0.00000
  85        8D+2       -0.00000  -0.00000  -0.00020   0.00035   0.00001
  86        8D-2        0.00009   0.00000   0.00000   0.00000  -0.00011
  87        9D 0        0.00000   0.00000   0.00208   0.00011   0.00001
  88        9D+1        0.00000   0.00074  -0.00000   0.00000  -0.00000
  89        9D-1        0.00000  -0.00000  -0.00000   0.00000   0.00000
  90        9D+2        0.00000   0.00000  -0.00384   0.00212   0.00004
  91        9D-2        0.00066   0.00000   0.00000   0.00001  -0.00073
  92       10F 0       -0.00000   0.00015  -0.00000   0.00000  -0.00000
  93       10F+1       -0.00000  -0.00000  -0.00065   0.00080   0.00001
  94       10F-1        0.00009   0.00000   0.00000   0.00000  -0.00007
  95       10F+2        0.00000  -0.00020   0.00000  -0.00000  -0.00000
  96       10F-2       -0.00000   0.00000  -0.00000   0.00000  -0.00000
  97       10F+3       -0.00000  -0.00000   0.00071   0.00023   0.00000
  98       10F-3       -0.00025  -0.00000  -0.00000  -0.00000  -0.00003
  99 3   H  1S         -0.00000   0.00019  -0.00036   0.02112   0.00037
 100        2S          0.00000  -0.00025   0.00241   0.01443   0.00025
 101        3S          0.00000  -0.00017  -0.00004   0.00125   0.00002
 102        4PX        -0.00000  -0.00005   0.00022  -0.00190  -0.00003
 103        4PY        -0.00000   0.00000   0.00000   0.00001  -0.00004
 104        4PZ         0.00000   0.00003   0.00019   0.00282   0.00005
 105        5PX        -0.00000   0.00019  -0.00034  -0.00226  -0.00003
 106        5PY        -0.00017  -0.00000   0.00000  -0.00001   0.00062
 107        5PZ         0.00000  -0.00010   0.00125   0.00170   0.00003
 108        6D 0        0.00000  -0.00001   0.00040   0.00022   0.00000
 109        6D+1       -0.00000   0.00004   0.00003  -0.00079  -0.00001
 110        6D-1       -0.00005  -0.00000   0.00000   0.00000   0.00006
 111        6D+2        0.00000  -0.00007  -0.00002   0.00030   0.00000
 112        6D-2        0.00002   0.00000   0.00000   0.00000  -0.00015
 113 4   O  1S          0.00350   0.00000  -0.00000  -0.13675  -0.15075
 114        2S         -0.00728  -0.00001   0.00000   0.31143   0.34380
 115        3S         -0.00130  -0.00000   0.00000   0.09479   0.10492
 116        4S         -0.00532  -0.00000   0.00000   0.18504   0.20524
 117        5PX         0.00000   0.00000  -0.00054  -0.00001  -0.00001
 118        5PY         0.00350   0.00000  -0.00000   0.02603   0.03297
 119        5PZ         0.00000  -0.00046  -0.00000   0.00005   0.00006
 120        6PX         0.00000  -0.00000  -0.00063  -0.00001  -0.00001
 121        6PY         0.00555   0.00001  -0.00000   0.02739   0.03539
 122        6PZ         0.00000  -0.00071  -0.00000   0.00006   0.00007
 123        7PX         0.00000  -0.00000   0.00113  -0.00001  -0.00001
 124        7PY        -0.00010   0.00000   0.00000  -0.00448  -0.00827
 125        7PZ        -0.00000  -0.00022  -0.00000   0.00001   0.00001
 126        8D 0        0.00024   0.00000  -0.00000  -0.00191  -0.00210
 127        8D+1        0.00000  -0.00000  -0.00000  -0.00000  -0.00000
 128        8D-1       -0.00000  -0.00003   0.00000   0.00000   0.00000
 129        8D+2        0.00038   0.00000  -0.00000   0.00041   0.00039
 130        8D-2       -0.00000   0.00000   0.00006   0.00000   0.00000
 131        9D 0        0.00158   0.00000  -0.00000  -0.00663  -0.00683
 132        9D+1       -0.00000   0.00000   0.00000  -0.00000  -0.00000
 133        9D-1       -0.00000   0.00117   0.00000   0.00001   0.00001
 134        9D+2        0.00283   0.00000   0.00000  -0.00295  -0.00168
 135        9D-2       -0.00000  -0.00000   0.00111   0.00000   0.00000
 136       10F 0       -0.00000   0.00019   0.00000  -0.00000  -0.00000
 137       10F+1       -0.00000  -0.00000   0.00004   0.00000   0.00000
 138       10F-1       -0.00045  -0.00000   0.00000  -0.00075  -0.00099
 139       10F+2       -0.00000   0.00032   0.00000   0.00000   0.00000
 140       10F-2        0.00000  -0.00000   0.00000  -0.00000  -0.00000
 141       10F+3       -0.00000  -0.00000   0.00023  -0.00000  -0.00000
 142       10F-3       -0.00062  -0.00000  -0.00000   0.00193   0.00204
 143 5   H  1S         -0.00029  -0.00000   0.00012   0.05539   0.06218
 144        2S          0.00092  -0.00000   0.00131   0.04681   0.05376
 145        3S          0.00013   0.00000   0.00014   0.00445   0.00234
 146        4PX         0.00006  -0.00000   0.00006   0.00743   0.00832
 147        4PY         0.00016   0.00000  -0.00006  -0.00526  -0.00585
 148        4PZ         0.00000  -0.00005  -0.00000  -0.00001  -0.00001
 149        5PX         0.00062  -0.00000   0.00037   0.00750   0.00967
 150        5PY         0.00019   0.00000  -0.00030  -0.00541  -0.00448
 151        5PZ        -0.00000  -0.00018  -0.00000  -0.00001  -0.00001
[...]
 285         V                 7.880594         11.563798
 286         V                 7.915891         11.616529
 287         V                 7.957712         11.622401
 288         V                 8.155947         15.601238
 289         V                 8.167360         12.035414
 290         V                 8.249692         12.026776
 291         V                 8.308948         15.583028
 292         V                 8.316035         15.631791
 293         V                 8.329962         15.636509
 294         V                 8.454641         15.634374
 295         V                 8.884555         15.930494
 296         V                 8.950382         15.932990
 297         V                12.130637         33.743211
 298         V                12.253104         34.542650
 299         V                12.329597         34.182467
 300         V                12.830354         35.451507
 Total kinetic energy from orbitals= 1.566174284891D+03
 Calling FoFJK, ICntrl=      2527 FMM=F ISym2X=0 I1Cent= 4 IOpClX= 0 NMat=1 NMatS=1 NMatT=0.
 ***** Axes restored to original set *****
 -------------------------------------------------------------------
 Center     Atomic                   Forces (Hartrees/Bohr)
 Number     Number              X              Y              Z
 -------------------------------------------------------------------
      1       26          -0.000000000   -0.000000000   -0.000000000
      2        8          -0.000000000   -0.000000000   -0.000000000
      3        1          -0.000001048   -0.000003046    0.000005404
      4        8          -0.000000000   -0.000000000   -0.000000000
      5        1          -0.000005740   -0.000006757   -0.000009754
      6        8          -0.000000000   -0.000000000   -0.000000000
      7        1           0.000004324    0.000000218   -0.000004587
      8        8          -0.000000000   -0.000000000   -0.000000000
      9        1           0.000000896   -0.000003093    0.000001046
     10        1           0.000003510    0.000000792    0.000003588
     11        1          -0.000002194   -0.000001522    0.000003019
     12        1           0.000000457    0.000000044   -0.000006877
     13        1           0.000005992    0.000009664    0.000002468
 -------------------------------------------------------------------
 Cartesian Forces:  Max     0.000009754 RMS     0.000003543

 GradGradGradGradGradGradGradGradGradGradGradGradGradGradGradGradGradGrad
 Berny optimization.
 FormGI is forming the generalized inverse of G from B-inverse, IUseBI=4.
 Internal  Forces:  Max     0.000016713 RMS     0.000005011
 Search for a local minimum.
 Step number   1 out of a maximum of   69
 All quantities printed in internal units (Hartrees-Bohrs-Radians)
 Mixed Optimization -- En-DIIS/RFO-DIIS
 Second derivative matrix not updated -- first step.
 ITU=  0
     Eigenvalues ---    0.01644   0.01644   0.02348   0.02348   0.02354
     Eigenvalues ---    0.02354   0.04472   0.04472   0.16000   0.16000
     Eigenvalues ---    0.16000   0.16000   0.16000   0.16000   0.16000
     Eigenvalues ---    0.16000   0.50908   0.50910   0.50914   0.50916
     Eigenvalues ---    0.51252   0.51253   0.51255   0.512561000.00000
     Eigenvalues --- 1000.000001000.000001000.000001000.000001000.00000
     Eigenvalues --- 1000.000001000.000001000.000001000.000001000.00000
     Eigenvalues --- 1000.000001000.000001000.000001000.000001000.00000
     Eigenvalues --- 1000.000001000.000001000.000001000.000001000.00000
     Eigenvalues --- 1000.000001000.000001000.000001000.000001000.00000
     Eigenvalues --- 1000.000001000.000001000.000001000.000001000.00000
     Eigenvalues --- 1000.000001000.000001000.000001000.00000
 RFO step:  Lambda= 0.00000000D+00 EMin= 1.64415003D-02
 Linear search not attempted -- first point.
 Iteration  1 RMS(Cart)=  0.00005738 RMS(Int)=  0.00000001
 Iteration  2 RMS(Cart)=  0.00000000 RMS(Int)=  0.00000000
 Variable       Old X    -DE/DX   Delta X   Delta X   Delta X     New X
                                 (Linear)    (Quad)   (Total)
    X1       -0.00066   0.00001   0.00000   0.00000   0.00000  -0.00066
    Y1        0.00064  -0.00000   0.00000   0.00000   0.00000   0.00064
    Z1       -0.00045  -0.00000   0.00000   0.00000   0.00000  -0.00045
    X2       -3.43915   0.00000   0.00000   0.00000   0.00000  -3.43915
    Y2        0.00154   0.00001   0.00000   0.00000   0.00000   0.00154
    Z2        0.00012   0.00001   0.00000   0.00000   0.00000   0.00012
    X4       -0.00166  -0.00001   0.00000   0.00000   0.00000  -0.00166
    Y4       -3.43954  -0.00001   0.00000   0.00000   0.00000  -3.43954
    Z4        0.00029  -0.00002   0.00000   0.00000   0.00000   0.00029
    X6        3.43945   0.00001   0.00000   0.00000   0.00000   3.43945
    Y6       -0.00291   0.00000   0.00000   0.00000   0.00000  -0.00291
    Z6        0.00012  -0.00000   0.00000   0.00000   0.00000   0.00012
    X8        0.00279  -0.00000   0.00000   0.00000   0.00000   0.00279
    Y8        3.43906  -0.00000   0.00000   0.00000   0.00000   3.43906
    Z8        0.00029   0.00001   0.00000   0.00000   0.00000   0.00029
    R1        1.85323  -0.00000   0.00000  -0.00001  -0.00001   1.85322
    R2        1.85321  -0.00000   0.00000  -0.00000  -0.00000   1.85321
    R3        1.85652  -0.00000   0.00000  -0.00000  -0.00000   1.85652
    R4        1.85654  -0.00000   0.00000  -0.00000  -0.00000   1.85654
    R5        1.85319  -0.00000   0.00000  -0.00000  -0.00000   1.85319
    R6        1.85320  -0.00000   0.00000  -0.00000  -0.00000   1.85320
    R7        1.85660  -0.00000   0.00000  -0.00001  -0.00001   1.85660
    R8        1.85658  -0.00000   0.00000  -0.00001  -0.00001   1.85658
    A1        2.20153   0.00001   0.00000   0.00006   0.00006   2.20159
    A2        2.20181  -0.00001   0.00000  -0.00006  -0.00006   2.20175
    A3        1.87984   0.00000   0.00000   0.00001   0.00001   1.87985
    A4        2.20124   0.00001   0.00000   0.00007   0.00007   2.20130
    A5        2.20220  -0.00001   0.00000  -0.00003  -0.00003   2.20216
    A6        1.87975  -0.00001   0.00000  -0.00004  -0.00004   1.87972
    A7        2.20152   0.00000   0.00000   0.00003   0.00003   2.20155
    A8        2.20174   0.00000   0.00000   0.00001   0.00001   2.20176
    A9        1.87992  -0.00001   0.00000  -0.00004  -0.00004   1.87988
   A10        2.20204  -0.00000   0.00000  -0.00002  -0.00002   2.20202
   A11        2.20156   0.00000   0.00000   0.00001   0.00001   2.20157
   A12        1.87959   0.00000   0.00000   0.00001   0.00001   1.87960
    D1       -1.57279   0.00000   0.00000   0.00005   0.00005  -1.57274
    D2        1.56939   0.00000   0.00000   0.00015   0.00015   1.56955
    D3        1.56923   0.00000   0.00000   0.00005   0.00005   1.56928
    D4       -1.57177   0.00000   0.00000   0.00015   0.00015  -1.57162
    D5        3.13923  -0.00000   0.00000   0.00004   0.00004   3.13927
    D6       -0.00129   0.00000   0.00000   0.00006   0.00006  -0.00123
    D7       -0.00234   0.00000   0.00000   0.00015   0.00015  -0.00219
    D8        3.14034   0.00000   0.00000   0.00016   0.00016   3.14050
    D9       -3.14040  -0.00000   0.00000  -0.00016  -0.00016  -3.14056
   D10       -0.00031   0.00000   0.00000   0.00011   0.00011  -0.00020
   D11        0.00086  -0.00000   0.00000  -0.00016  -0.00016   0.00071
   D12        3.14095   0.00000   0.00000   0.00011   0.00011   3.14106
   D13       -3.14008  -0.00000   0.00000  -0.00014  -0.00014  -3.14021
   D14        0.00150  -0.00000   0.00000  -0.00020  -0.00020   0.00130
   D15       -0.00030   0.00000   0.00000   0.00013   0.00013  -0.00017
   D16        3.14128   0.00000   0.00000   0.00006   0.00006   3.14135
   D17       -1.57173  -0.00000   0.00000  -0.00001  -0.00001  -1.57174
   D18        1.57150  -0.00000   0.00000   0.00001   0.00001   1.57151
   D19        1.56944  -0.00000   0.00000  -0.00001  -0.00001   1.56943
   D20       -1.57051  -0.00000   0.00000   0.00001   0.00001  -1.57051
   D21        0.00001  -0.00000   0.00000   0.00002   0.00002   0.00003
   D22       -3.14128  -0.00000   0.00000  -0.00005  -0.00005  -3.14133
   D23       -3.14125   0.00000   0.00000   0.00002   0.00002  -3.14123
   D24        0.00064   0.00000   0.00000  -0.00005  -0.00005   0.00060
         Item               Value     Threshold  Converged?
 Maximum Force            0.000011     0.000450     YES
 RMS     Force            0.000004     0.000300     YES
 Maximum Displacement     0.000232     0.001800     YES
 RMS     Displacement     0.000057     0.001200     YES
 Predicted change in Energy=-4.470034D-09
 Optimization completed.
    -- Stationary point found.
                           ----------------------------
                           !   Optimized Parameters   !
                           ! (Angstroms and Degrees)  !
 --------------------------                            --------------------------
 ! Name  Definition              Value          Derivative Info.                !
 --------------------------------------------------------------------------------
 ! X1    R(1,-1)                -0.0004         -DE/DX =    0.0                 !
 ! Y1    R(1,-2)                 0.0003         -DE/DX =    0.0                 !
 ! Z1    R(1,-3)                -0.0002         -DE/DX =    0.0                 !
 ! X2    R(2,-1)                -1.8199         -DE/DX =    0.0                 !
 ! Y2    R(2,-2)                 0.0008         -DE/DX =    0.0                 !
 ! Z2    R(2,-3)                 0.0001         -DE/DX =    0.0                 !
 ! X4    R(4,-1)                -0.0009         -DE/DX =    0.0                 !
 ! Y4    R(4,-2)                -1.8201         -DE/DX =    0.0                 !
 ! Z4    R(4,-3)                 0.0002         -DE/DX =    0.0                 !
 ! X6    R(6,-1)                 1.8201         -DE/DX =    0.0                 !
 ! Y6    R(6,-2)                -0.0015         -DE/DX =    0.0                 !
 ! Z6    R(6,-3)                 0.0001         -DE/DX =    0.0                 !
 ! X8    R(8,-1)                 0.0015         -DE/DX =    0.0                 !
 ! Y8    R(8,-2)                 1.8199         -DE/DX =    0.0                 !
 ! Z8    R(8,-3)                 0.0002         -DE/DX =    0.0                 !
 ! R1    R(2,3)                  0.9807         -DE/DX =    0.0                 !
 ! R2    R(2,13)                 0.9807         -DE/DX =    0.0                 !
 ! R3    R(4,5)                  0.9824         -DE/DX =    0.0                 !
 ! R4    R(4,12)                 0.9824         -DE/DX =    0.0                 !
 ! R5    R(6,7)                  0.9807         -DE/DX =    0.0                 !
 ! R6    R(6,10)                 0.9807         -DE/DX =    0.0                 !
 ! R7    R(8,9)                  0.9825         -DE/DX =    0.0                 !
 ! R8    R(8,11)                 0.9825         -DE/DX =    0.0                 !
 ! A1    A(1,2,3)              126.1385         -DE/DX =    0.0                 !
 ! A2    A(1,2,13)             126.1544         -DE/DX =    0.0                 !
 ! A3    A(3,2,13)             107.7071         -DE/DX =    0.0                 !
 ! A4    A(1,4,5)              126.1216         -DE/DX =    0.0                 !
 ! A5    A(1,4,12)             126.1766         -DE/DX =    0.0                 !
 ! A6    A(5,4,12)             107.7018         -DE/DX =    0.0                 !
 ! A7    A(1,6,7)              126.1378         -DE/DX =    0.0                 !
 ! A8    A(1,6,10)             126.1506         -DE/DX =    0.0                 !
 ! A9    A(7,6,10)             107.7116         -DE/DX =    0.0                 !
 ! A10   A(1,8,9)              126.1675         -DE/DX =    0.0                 !
 ! A11   A(1,8,11)             126.14           -DE/DX =    0.0                 !
 ! A12   A(9,8,11)             107.6925         -DE/DX =    0.0                 !
 ! D1    D(4,1,2,3)            -90.1143         -DE/DX =    0.0                 !
 ! D2    D(4,1,2,13)            89.9196         -DE/DX =    0.0                 !
 ! D3    D(8,1,2,3)             89.9101         -DE/DX =    0.0                 !
 ! D4    D(8,1,2,13)           -90.056          -DE/DX =    0.0                 !
 ! D5    D(3,2,6,7)            179.8644         -DE/DX =    0.0                 !
 ! D6    D(3,2,6,10)            -0.0738         -DE/DX =    0.0                 !
 ! D7    D(13,2,6,7)            -0.1338         -DE/DX =    0.0                 !
 ! D8    D(13,2,6,10)          179.928          -DE/DX =    0.0                 !
 ! D9    D(2,1,4,5)           -179.9317         -DE/DX =    0.0                 !
 ! D10   D(2,1,4,12)            -0.0178         -DE/DX =    0.0                 !
 ! D11   D(6,1,4,5)              0.0494         -DE/DX =    0.0                 !
 ! D12   D(6,1,4,12)           179.9633         -DE/DX =    0.0                 !
 ! D13   D(5,4,8,9)           -179.9131         -DE/DX =    0.0                 !
 ! D14   D(5,4,8,11)             0.0861         -DE/DX =    0.0                 !
 ! D15   D(12,4,8,9)            -0.017          -DE/DX =    0.0                 !
 ! D16   D(12,4,8,11)          179.9822         -DE/DX =    0.0                 !
 ! D17   D(4,1,6,7)            -90.0534         -DE/DX =    0.0                 !
 ! D18   D(4,1,6,10)            90.0405         -DE/DX =    0.0                 !
 ! D19   D(8,1,6,7)             89.9222         -DE/DX =    0.0                 !
 ! D20   D(8,1,6,10)           -89.9839         -DE/DX =    0.0                 !
 ! D21   D(2,1,8,9)              0.0008         -DE/DX =    0.0                 !
 ! D22   D(2,1,8,11)          -179.9821         -DE/DX =    0.0                 !
 ! D23   D(6,1,8,9)           -179.9803         -DE/DX =    0.0                 !
 ! D24   D(6,1,8,11)             0.0368         -DE/DX =    0.0                 !
 --------------------------------------------------------------------------------
 GradGradGradGradGradGradGradGradGradGradGradGradGradGradGradGradGradGrad

                          Input orientation:                          
 ---------------------------------------------------------------------
 Center     Atomic      Atomic             Coordinates (Angstroms)
 Number     Number       Type             X           Y           Z
 ---------------------------------------------------------------------
      1         26           0       -0.000352    0.000337   -0.000236
      2          8           0       -1.819919    0.000815    0.000065
      3          1           0       -2.398399    0.002379   -0.791835
      4          8           0       -0.000880   -1.820129    0.000152
      5          1           0        0.792527   -2.399502    0.001090
      6          8           0        1.820081   -0.001539    0.000065
      7          1           0        2.398279   -0.001229    0.792147
      8          8           0        0.001475    1.819871    0.000152
      9          1           0       -0.791087    2.400470    0.000418
     10          1           0        2.398718   -0.001744   -0.791701
     11          1           0        0.795470    2.398490   -0.000103
     12          1           0       -0.794072   -2.399807    0.000653
     13          1           0       -2.398352    0.000025    0.791988
 ---------------------------------------------------------------------
                    Distance matrix (angstroms):
                    1          2          3          4          5
     1  Fe   0.000000
     2  O    1.819567   0.000000
     3  H    2.525324   0.980687   0.000000
     4  O    1.820466   2.573857   3.113981   0.000000
     5  H    2.527427   3.547731   4.071826   0.982429   0.000000
     6  O    1.820434   3.640000   4.292166   2.573551   2.608849
     7  H    2.526123   4.291921   5.051448   3.113136   2.992645
     8  O    1.819534   2.574187   3.112863   3.640000   4.292886
     9  H    2.527033   2.610907   2.993652   4.293935   5.054459
    10  H    2.526253   4.292295   4.797118   3.113137   2.992927
    11  H    2.526750   3.548112   4.070501   4.293124   4.797993
    12  H    2.527981   2.610623   2.995396   0.982437   1.586599
    13  H    2.525475   0.980677   1.583825   3.112529   4.070007
                    6          7          8          9         10
     6  O    0.000000
     7  H    0.980666   0.000000
     8  O    2.573880   3.112607   0.000000
     9  H    3.547935   4.070263   0.982471   0.000000
    10  H    0.980670   1.583848   3.113211   4.070987   0.000000
    11  H    2.609591   2.992542   0.982460   1.586558   2.993018
    12  H    3.547603   4.070718   4.294017   4.800278   4.070926
    13  H    4.292123   4.796631   3.114163   2.995333   5.051728
                   11         12         13
    11  H    0.000000
    12  H    5.054730   0.000000
    13  H    4.071921   2.993179   0.000000
 Stoichiometry    FeH8O4(2+)
 Framework group  C1[X(FeH8O4)]
 Deg. of freedom    33
 Full point group                 C1      NOp   1
 Largest Abelian subgroup         C1      NOp   1
 Largest concise Abelian subgroup C1      NOp   1
                         Standard orientation:                         
 ---------------------------------------------------------------------
 Center     Atomic      Atomic             Coordinates (Angstroms)
 Number     Number       Type             X           Y           Z
 ---------------------------------------------------------------------
      1         26           0        0.000352   -0.000337   -0.000235
      2          8           0        1.819919   -0.000815    0.000065
      3          1           0        2.398399   -0.002379   -0.791835
      4          8           0        0.000880    1.820129    0.000152
      5          1           0       -0.792527    2.399502    0.001090
      6          8           0       -1.820081    0.001539    0.000065
      7          1           0       -2.398279    0.001229    0.792147
      8          8           0       -0.001475   -1.819871    0.000152
      9          1           0        0.791087   -2.400470    0.000418
     10          1           0       -2.398718    0.001744   -0.791701
     11          1           0       -0.795470   -2.398490   -0.000103
     12          1           0        0.794072    2.399807    0.000653
     13          1           0        2.398352   -0.000025    0.791988
 ---------------------------------------------------------------------
 Rotational constants (GHZ):      3.8372560      3.7653513      1.9373188
 1\1\GINC-HECTOR-MACBOOKAIR\FOpt\RPBEPBE\CC-pVTZ/def2TZV\Fe1H8O4(2+)\HE
 CTOR\08-Aug-2024\0\\# opt pbepbe/cc-pvtz/def2tzv pop=full geom=connect
 ivity output=wfx\\Fe2_cuadrado_plano_cc-pvtz-def2-tzv_1\\2,1\Fe,-0.000
 35174,0.00033734,-0.0002355\O,-1.81991861,0.00081547,0.0000646\H,-2.39
 839866,0.00237887,-0.79183477\O,-0.00087952,-1.82012875,0.00015205\H,0
 .79252692,-2.39950173,0.00108999\O,1.82008081,-0.00153903,0.00006459\H
 ,2.39827856,-0.00122857,0.79214668\O,0.00147508,1.8198707,0.00015207\H
 ,-0.79108674,2.40046968,0.00041776\H,2.39871774,-0.00174373,-0.7917011
 4\H,0.79546958,2.39849,-0.00010311\H,-0.7940723,-2.39980724,0.00065291
 \H,-2.39835187,0.00002479,0.79198801\\Version=EM64L-G09RevE.01\State=1
 -A\HF=-1569.3607736\RMSD=2.117e-09\RMSF=3.543e-06\Dipole=0.0005363,0.0
 014802,0.0012376\Quadrupole=8.4109324,6.0242562,-14.4351886,0.0012353,
 0.0002015,-0.0075703\PG=C01 [X(Fe1H8O4)]\\@

 Writing a WFNX file to "Fe2_cuadrado_plano_cc-pvtz-def2-tzv_1.wfx"


 LAW OF COMPENSATION:
      NO CALCULATION IS EVER A COMPLETE FAILURE; IT 
      CAN ALWAYS SERVE AS A BAD EXAMPLE.

                                           -- ANON
 Job cpu time:       0 days  0 hours  2 minutes 31.8 seconds.
 File lengths (MBytes):  RWF=     49 Int=      0 D2E=      0 Chk=      7 Scr=      1
 Normal termination of Gaussian 09 at Thu Aug  8 09:45:35 2024.
