 Entering Gaussian System, Link 0=g09
 Input=/home/scratch/M_H2O_4_tetraedrico/Opt/Sc3_tetraedrico_cc-pvtz-def2-tzv_1.gjf
 Output=/home/scratch/M_H2O_4_tetraedrico/Opt/Sc3_tetraedrico_cc-pvtz-def2-tzv_1.log
 Initial command:
 /opt/g09/l1.exe "/home/scratch/Gau-76650.inp" -scrdir="/home/scratch/"
 Entering Link 1 = /opt/g09/l1.exe PID=     76653.
  
 Copyright (c) 1988,1990,1992,1993,1995,1998,2003,2009,2015,
            Gaussian, Inc.  All Rights Reserved.
  
 This is part of the Gaussian(R) 09 program.  It is based on
 the Gaussian(R) 03 system (copyright 2003, Gaussian, Inc.),
 the Gaussian(R) 98 system (copyright 1998, Gaussian, Inc.),
 the Gaussian(R) 94 system (copyright 1995, Gaussian, Inc.),
 the Gaussian 92(TM) system (copyright 1992, Gaussian, Inc.),
 the Gaussian 90(TM) system (copyright 1990, Gaussian, Inc.),
 the Gaussian 88(TM) system (copyright 1988, Gaussian, Inc.),
 the Gaussian 86(TM) system (copyright 1986, Carnegie Mellon
 University), and the Gaussian 82(TM) system (copyright 1983,
 Carnegie Mellon University). Gaussian is a federally registered
 trademark of Gaussian, Inc.
  
 This software contains proprietary and confidential information,
 including trade secrets, belonging to Gaussian, Inc.
  
 This software is provided under written license and may be
 used, copied, transmitted, or stored only in accord with that
 written license.
  
 The following legend is applicable only to US Government
 contracts under FAR:
  
                    RESTRICTED RIGHTS LEGEND
  
 Use, reproduction and disclosure by the US Government is
 subject to restrictions as set forth in subparagraphs (a)
 and (c) of the Commercial Computer Software - Restricted
 Rights clause in FAR 52.227-19.
  
 Gaussian, Inc.
 340 Quinnipiac St., Bldg. 40, Wallingford CT 06492
  
  
 ---------------------------------------------------------------
 Warning -- This program may not be used in any manner that
 competes with the business of Gaussian, Inc. or will provide
 assistance to any competitor of Gaussian, Inc.  The licensee
 of this program is prohibited from giving any competitor of
 Gaussian, Inc. access to this program.  By using this program,
 the user acknowledges that Gaussian, Inc. is engaged in the
 business of creating and licensing software in the field of
 computational chemistry and represents and warrants to the
 licensee that it is not a competitor of Gaussian, Inc. and that
 it will not use this program in any manner prohibited above.
 ---------------------------------------------------------------
  

 Cite this work as:
 Gaussian 09, Revision E.01,
 M. J. Frisch, G. W. Trucks, H. B. Schlegel, G. E. Scuseria, 
 M. A. Robb, J. R. Cheeseman, G. Scalmani, V. Barone, B. Mennucci, 
 G. A. Petersson, H. Nakatsuji, M. Caricato, X. Li, H. P. Hratchian, 
 A. F. Izmaylov, J. Bloino, G. Zheng, J. L. Sonnenberg, M. Hada, 
 M. Ehara, K. Toyota, R. Fukuda, J. Hasegawa, M. Ishida, T. Nakajima, 
 Y. Honda, O. Kitao, H. Nakai, T. Vreven, J. A. Montgomery, Jr., 
 J. E. Peralta, F. Ogliaro, M. Bearpark, J. J. Heyd, E. Brothers, 
 K. N. Kudin, V. N. Staroverov, T. Keith, R. Kobayashi, J. Normand, 
 K. Raghavachari, A. Rendell, J. C. Burant, S. S. Iyengar, J. Tomasi, 
 M. Cossi, N. Rega, J. M. Millam, M. Klene, J. E. Knox, J. B. Cross, 
 V. Bakken, C. Adamo, J. Jaramillo, R. Gomperts, R. E. Stratmann, 
 O. Yazyev, A. J. Austin, R. Cammi, C. Pomelli, J. W. Ochterski, 
 R. L. Martin, K. Morokuma, V. G. Zakrzewski, G. A. Voth, 
 P. Salvador, J. J. Dannenberg, S. Dapprich, A. D. Daniels, 
 O. Farkas, J. B. Foresman, J. V. Ortiz, J. Cioslowski, 
 and D. J. Fox, Gaussian, Inc., Wallingford CT, 2013.
 
 ******************************************
 Gaussian 09:  EM64L-G09RevE.01 30-Nov-2015
                 8-Aug-2024 
 ******************************************
 %chk=Sc3_tetraedrico_cc-pvtz-def2-tzv_1.chk
 ------------------------------------------------------------------
 # opt pbepbe/cc-pvtz/def2tzv pop=full geom=connectivity output=wfx
 ------------------------------------------------------------------
 1/14=-1,18=20,19=15,26=3,38=1,57=2/1,3;
 2/9=110,12=2,17=6,18=5,40=1/2;
 3/5=16,6=1,11=2,16=1,25=1,30=1,71=1,74=1009,82=44/1,2,3;
 4//1;
 5/5=2,38=5/2;
 6/7=3,28=1/1;
 7//1,2,3,16;
 1/14=-1,18=20,19=15,26=3/3(2);
 2/9=110/2;
 99/6=200/99;
 2/9=110/2;
 3/5=16,6=1,11=2,16=1,25=1,30=1,71=1,74=1009,82=44/1,2,3;
 4/5=5,16=3,69=1/1;
 5/5=2,38=5/2;
 7//1,2,3,16;
 1/14=-1,18=20,19=15,26=3/3(-5);
 2/9=110/2;
 6/7=3,19=2,28=1/1;
 99/6=200,9=1/99;
 ----------------------------------
 Sc3_tetraedrico_cc-pvtz-def2-tzv_1
 ----------------------------------
 Symbolic Z-matrix:
 Charge =  3 Multiplicity = 1
 Sc                   -1   -0.00001  0.         0.00003 
 O                    -1    1.20635   0.84424  -1.49728 
 H                    0     2.01959   0.45096  -1.90742 
 O                    -1    1.21844  -0.82805   1.4966 
 H                    0     1.11622  -1.71661   1.92561 
 O                    -1   -1.22217   1.48881   0.83656 
 H                    0    -2.03554   1.8935    0.43792 
 O                    -1   -1.20268  -1.50501  -0.83577 
 H                    0    -1.09158  -1.93338  -1.72359 
 H                    0    -2.01067  -1.92023  -0.43709 
 H                    0     2.02706  -0.42426   1.90563 
 H                    0    -1.11643   1.91899   1.72414 
 H                    0     1.09211   1.73122  -1.92655 
 

 GradGradGradGradGradGradGradGradGradGradGradGradGradGradGradGradGradGrad
 Berny optimization.
 Initialization pass.
                           ----------------------------
                           !    Initial Parameters    !
                           ! (Angstroms and Degrees)  !
 --------------------------                            --------------------------
 ! Name  Definition              Value          Derivative Info.                !
 --------------------------------------------------------------------------------
 ! X1    R(1,-1)                 0.0            Frozen                          !
 ! Y1    R(1,-2)                 0.0            Frozen                          !
 ! Z1    R(1,-3)                 0.0            Frozen                          !
 ! X2    R(2,-1)                 1.2064         Frozen                          !
 ! Y2    R(2,-2)                 0.8442         Frozen                          !
 ! Z2    R(2,-3)                -1.4973         Frozen                          !
 ! X4    R(4,-1)                 1.2184         Frozen                          !
 ! Y4    R(4,-2)                -0.828          Frozen                          !
 ! Z4    R(4,-3)                 1.4966         Frozen                          !
 ! X6    R(6,-1)                -1.2222         Frozen                          !
 ! Y6    R(6,-2)                 1.4888         Frozen                          !
 ! Z6    R(6,-3)                 0.8366         Frozen                          !
 ! X8    R(8,-1)                -1.2027         Frozen                          !
 ! Y8    R(8,-2)                -1.505          Frozen                          !
 ! Z8    R(8,-3)                -0.8358         Frozen                          !
 ! R1    R(2,3)                  0.9921         estimate D2E/DX2                !
 ! R2    R(2,13)                 0.992          estimate D2E/DX2                !
 ! R3    R(4,5)                  0.992          estimate D2E/DX2                !
 ! R4    R(4,11)                 0.9921         estimate D2E/DX2                !
 ! R5    R(6,7)                  0.9921         estimate D2E/DX2                !
 ! R6    R(6,12)                 0.992          estimate D2E/DX2                !
 ! R7    R(8,9)                  0.992          estimate D2E/DX2                !
 ! R8    R(8,10)                 0.9921         estimate D2E/DX2                !
 ! A1    A(1,2,3)              127.3217         estimate D2E/DX2                !
 ! A2    A(1,2,13)             127.0019         estimate D2E/DX2                !
 ! A3    A(3,2,13)             105.6622         estimate D2E/DX2                !
 ! A4    A(1,4,5)              126.9855         estimate D2E/DX2                !
 ! A5    A(1,4,11)             127.3194         estimate D2E/DX2                !
 ! A6    A(5,4,11)             105.6795         estimate D2E/DX2                !
 ! A7    A(1,6,7)              127.3202         estimate D2E/DX2                !
 ! A8    A(1,6,12)             127.001          estimate D2E/DX2                !
 ! A9    A(7,6,12)             105.6653         estimate D2E/DX2                !
 ! A10   A(1,8,9)              126.9795         estimate D2E/DX2                !
 ! A11   A(1,8,10)             127.3328         estimate D2E/DX2                !
 ! A12   A(9,8,10)             105.6732         estimate D2E/DX2                !
 ! D1    D(4,1,2,3)             43.9917         estimate D2E/DX2                !
 ! D2    D(4,1,2,13)          -134.4373         estimate D2E/DX2                !
 ! D3    D(6,1,2,3)            163.9917         estimate D2E/DX2                !
 ! D4    D(6,1,2,13)           -14.4372         estimate D2E/DX2                !
 ! D5    D(8,1,2,3)            -76.0083         estimate D2E/DX2                !
 ! D6    D(8,1,2,13)           105.5627         estimate D2E/DX2                !
 ! D7    D(2,1,4,5)           -134.4217         estimate D2E/DX2                !
 ! D8    D(2,1,4,11)            43.9317         estimate D2E/DX2                !
 ! D9    D(6,1,4,5)            105.5783         estimate D2E/DX2                !
 ! D10   D(6,1,4,11)           -76.0683         estimate D2E/DX2                !
 ! D11   D(8,1,4,5)            -14.4217         estimate D2E/DX2                !
 ! D12   D(8,1,4,11)           163.9317         estimate D2E/DX2                !
 ! D13   D(2,1,6,7)             75.9825         estimate D2E/DX2                !
 ! D14   D(2,1,6,12)          -105.5445         estimate D2E/DX2                !
 ! D15   D(4,1,6,7)           -164.0175         estimate D2E/DX2                !
 ! D16   D(4,1,6,12)            14.4555         estimate D2E/DX2                !
 ! D17   D(8,1,6,7)            -44.0175         estimate D2E/DX2                !
 ! D18   D(8,1,6,12)           134.4555         estimate D2E/DX2                !
 ! D19   D(2,1,8,9)             14.4388         estimate D2E/DX2                !
 ! D20   D(2,1,8,10)          -163.9729         estimate D2E/DX2                !
 ! D21   D(4,1,8,9)           -105.5612         estimate D2E/DX2                !
 ! D22   D(4,1,8,10)            76.0271         estimate D2E/DX2                !
 ! D23   D(6,1,8,9)            134.4388         estimate D2E/DX2                !
 ! D24   D(6,1,8,10)           -43.9729         estimate D2E/DX2                !
 --------------------------------------------------------------------------------
 Trust Radius=3.00D-01 FncErr=1.00D-07 GrdErr=1.00D-06
 Number of steps in this run=     69 maximum allowed number of steps=    100.
 GradGradGradGradGradGradGradGradGradGradGradGradGradGradGradGradGradGrad

                          Input orientation:                          
 ---------------------------------------------------------------------
 Center     Atomic      Atomic             Coordinates (Angstroms)
 Number     Number       Type             X           Y           Z
 ---------------------------------------------------------------------
      1         21           0       -0.000014   -0.000004    0.000025
      2          8           0        1.206351    0.844239   -1.497285
      3          1           0        2.019589    0.450957   -1.907419
      4          8           0        1.218438   -0.828046    1.496595
      5          1           0        1.116216   -1.716611    1.925614
      6          8           0       -1.222168    1.488805    0.836559
      7          1           0       -2.035535    1.893505    0.437921
      8          8           0       -1.202678   -1.505012   -0.835768
      9          1           0       -1.091575   -1.933376   -1.723591
     10          1           0       -2.010673   -1.920229   -0.437087
     11          1           0        2.027057   -0.424258    1.905626
     12          1           0       -1.116427    1.918986    1.724145
     13          1           0        1.092107    1.731225   -1.926552
 ---------------------------------------------------------------------
                    Distance matrix (angstroms):
                    1          2          3          4          5
     1  Sc   0.000000
     2  O    2.100000   0.000000
     3  H    2.814339   0.992087   0.000000
     4  O    2.100000   3.429286   3.723574   0.000000
     5  H    2.810801   4.275782   4.495172   0.991995   0.000000
     6  O    2.100000   3.429286   4.372131   3.429287   4.114459
     7  H    2.814333   3.918648   4.901591   4.372181   5.017938
     8  O    2.100000   3.429286   3.918833   3.429286   3.612101
     9  H    2.810745   3.612038   3.924051   4.114306   4.270600
    10  H    2.814442   4.372133   4.901776   3.919075   3.924442
    11  H    2.814307   3.723230   3.912207   0.992077   1.581205
    12  H    2.810958   4.114364   5.017764   3.612417   4.271164
    13  H    2.810975   0.992001   1.581036   4.275952   5.169849
                    6          7          8          9         10
     6  O    0.000000
     7  H    0.992099   0.000000
     8  O    3.429286   3.723688   0.000000
     9  H    4.275833   4.495354   0.992002   0.000000
    10  H    3.723631   3.912905   0.992073   1.581141   0.000000
    11  H    3.919206   4.902125   4.372008   5.017421   4.901989
    12  H    0.991991   1.581070   4.276021   5.169931   4.495572
    13  H    3.612398   3.924182   4.114496   4.270710   5.017855
                   11         12         13
    11  H    0.000000
    12  H    3.924947   0.000000
    13  H    4.495089   4.270885   0.000000
 Stoichiometry    H8O4Sc(3+)
 Framework group  C1[X(H8O4Sc)]
 Deg. of freedom    33
 Full point group                 C1      NOp   1
 Largest Abelian subgroup         C1      NOp   1
 Largest concise Abelian subgroup C1      NOp   1
                         Standard orientation:                         
 ---------------------------------------------------------------------
 Center     Atomic      Atomic             Coordinates (Angstroms)
 Number     Number       Type             X           Y           Z
 ---------------------------------------------------------------------
      1         21           0       -0.000014    0.000004   -0.000025
      2          8           0        1.206351   -0.844239    1.497285
      3          1           0        2.019589   -0.450958    1.907419
      4          8           0        1.218438    0.828046   -1.496595
      5          1           0        1.116217    1.716610   -1.925614
      6          8           0       -1.222169   -1.488805   -0.836559
      7          1           0       -2.035536   -1.893503   -0.437921
      8          8           0       -1.202677    1.505013    0.835768
      9          1           0       -1.091574    1.933377    1.723591
     10          1           0       -2.010672    1.920231    0.437087
     11          1           0        2.027057    0.424256   -1.905626
     12          1           0       -1.116428   -1.918985   -1.724145
     13          1           0        1.092106   -1.731226    1.926552
 ---------------------------------------------------------------------
 Rotational constants (GHZ):      2.1928668      2.1906620      2.1906152
 Standard basis: CC-pVTZ (5D, 7F)
 There are   344 symmetry adapted cartesian basis functions of A   symmetry.
 There are   300 symmetry adapted basis functions of A   symmetry.
   300 basis functions,   695 primitive gaussians,   344 cartesian basis functions
    29 alpha electrons       29 beta electrons
       nuclear repulsion energy       324.0186803474 Hartrees.
 NAtoms=   13 NActive=   13 NUniq=   13 SFac= 1.00D+00 NAtFMM=   60 NAOKFM=F Big=F
 Integral buffers will be    131072 words long.
 Raffenetti 2 integral format.
 Two-electron integral symmetry is turned on.
 Standard density basis: def2TZV (5D, 7F)
   110 Density fitting functions
 There are   110 symmetry adapted density basis functions of A   symmetry.
 One-electron integrals computed using PRISM.
 NBasis=   300 RedAO= T EigKep=  1.31D-03  NBF=   300
 NBsUse=   300 1.00D-06 EigRej= -1.00D+00 NBFU=   300
 NBasis=      300 NBas6D=      344 NTT=       45150   NTT6D=    59340
 NDBShl=       68 NDBF=        110 NDBF6D=      113  NNucDB=        0
 IDenFi=        2 ISolve=        0 FullAP=F BlkAPC=T NucTyp=        0
 TolInv= 1.00D-06 TolIt=  1.00D-10 IR12=0.
 FoFCou: FMM=F IPFlag=           0 FMFlag=           0 FMFlg1=           0
         NFxFlg=           0 DoJE=F BraDBF=T KetDBF=T FulRan=T
         wScrn=  0.000000 ICntrl=     600 IOpCl=  3 I1Cent=           6 NGrid=           0
         NMat0=    1 NMatS0=    113 NMatT0=    0 NMatD0=    1 NMtDS0=    0 NMtDT0=    0
 Petite list used in FoFCou.
 DBF EigKep=  5.11D-04 EigRej= -1.00D+00
 NDBF=    110  NBFD=   110
 NRank=   110 NBFDU=   110
 S*AI*S=  10.0085789341    
 ExpMin= 2.39D-02 ExpMax= 2.72D+06 ExpMxC= 3.09D+03 IAcc=3 IRadAn=         5 AccDes= 0.00D+00
 Harris functional with IExCor= 1009 and IRadAn=       5 diagonalized for initial guess.
 HarFok:  IExCor= 1009 AccDes= 0.00D+00 IRadAn=         5 IDoV= 1 UseB2=F ITyADJ=14
 ICtDFT=  3500011 ScaDFX=  1.000000  1.000000  1.000000  1.000000
 FoFCou: FMM=F IPFlag=           0 FMFlag=      100000 FMFlg1=           0
         NFxFlg=           0 DoJE=T BraDBF=F KetDBF=T FulRan=T
         wScrn=  0.000000 ICntrl=     500 IOpCl=  0 I1Cent=   200000004 NGrid=           0
         NMat0=    1 NMatS0=      1 NMatT0=    0 NMatD0=    1 NMtDS0=    0 NMtDT0=    0
 Petite list used in FoFCou.
 Requested convergence on RMS density matrix=1.00D-08 within 128 cycles.
 Requested convergence on MAX density matrix=1.00D-06.
 Requested convergence on             energy=1.00D-06.
 No special actions if energy rises.
 FoFCou: FMM=F IPFlag=           0 FMFlag=      100000 FMFlg1=           0
         NFxFlg=           0 DoJE=T BraDBF=T KetDBF=F FulRan=T
         wScrn=  0.000000 ICntrl=     500 IOpCl=  0 I1Cent=           5 NGrid=           0
         NMat0=    1 NMatS0=      1 NMatT0=    0 NMatD0=    1 NMtDS0=    0 NMtDT0=    0
 Symmetry not used in FoFCou.
 EnCoef did     3 forward-backward iterations
 EnCoef did     3 forward-backward iterations
 EnCoef did     4 forward-backward iterations
 SCF Done:  E(RPBE-PBE) =  -1065.82939327     A.U. after   14 cycles
            NFock= 14  Conv=0.60D-08     -V/T= 2.0027

 **********************************************************************

            Population analysis using the SCF density.

 **********************************************************************

 Orbital symmetries:
       Occupied  (A) (A) (A) (A) (A) (A) (A) (A) (A) (A) (A) (A)
                 (A) (A) (A) (A) (A) (A) (A) (A) (A) (A) (A) (A)
                 (A) (A) (A) (A) (A)
       Virtual   (A) (A) (A) (A) (A) (A) (A) (A) (A) (A) (A) (A)
                 (A) (A) (A) (A) (A) (A) (A) (A) (A) (A) (A) (A)
                 (A) (A) (A) (A) (A) (A) (A) (A) (A) (A) (A) (A)
                 (A) (A) (A) (A) (A) (A) (A) (A) (A) (A) (A) (A)
                 (A) (A) (A) (A) (A) (A) (A) (A) (A) (A) (A) (A)
                 (A) (A) (A) (A) (A) (A) (A) (A) (A) (A) (A) (A)
                 (A) (A) (A) (A) (A) (A) (A) (A) (A) (A) (A) (A)
                 (A) (A) (A) (A) (A) (A) (A) (A) (A) (A) (A) (A)
                 (A) (A) (A) (A) (A) (A) (A) (A) (A) (A) (A) (A)
                 (A) (A) (A) (A) (A) (A) (A) (A) (A) (A) (A) (A)
                 (A) (A) (A) (A) (A) (A) (A) (A) (A) (A) (A) (A)
                 (A) (A) (A) (A) (A) (A) (A) (A) (A) (A) (A) (A)
                 (A) (A) (A) (A) (A) (A) (A) (A) (A) (A) (A) (A)
                 (A) (A) (A) (A) (A) (A) (A) (A) (A) (A) (A) (A)
                 (A) (A) (A) (A) (A) (A) (A) (A) (A) (A) (A) (A)
                 (A) (A) (A) (A) (A) (A) (A) (A) (A) (A) (A) (A)
                 (A) (A) (A) (A) (A) (A) (A) (A) (A) (A) (A) (A)
                 (A) (A) (A) (A) (A) (A) (A) (A) (A) (A) (A) (A)
                 (A) (A) (A) (A) (A) (A) (A) (A) (A) (A) (A) (A)
                 (A) (A) (A) (A) (A) (A) (A) (A) (A) (A) (A) (A)
                 (A) (A) (A) (A) (A) (A) (A) (A) (A) (A) (A) (A)
                 (A) (A) (A) (A) (A) (A) (A) (A) (A) (A) (A) (A)
                 (A) (A) (A) (A) (A) (A) (A)
 The electronic state is 1-A.
 Alpha  occ. eigenvalues -- -161.20991 -19.35963 -19.35963 -19.35963 -19.35962
 Alpha  occ. eigenvalues --  -18.08465 -15.06675 -15.06675 -15.06665  -2.65115
 Alpha  occ. eigenvalues --   -1.87182  -1.87182  -1.87157  -1.51482  -1.51173
 Alpha  occ. eigenvalues --   -1.51173  -1.51172  -1.06149  -1.05955  -1.05861
 Alpha  occ. eigenvalues --   -1.05860  -0.98869  -0.98284  -0.98276  -0.98276
 Alpha  occ. eigenvalues --   -0.87994  -0.87402  -0.87012  -0.87011
 Alpha virt. eigenvalues --   -0.69102  -0.68946  -0.66436  -0.66435  -0.66380
 Alpha virt. eigenvalues --   -0.55625  -0.49207  -0.49207  -0.49127  -0.41907
 Alpha virt. eigenvalues --   -0.41157  -0.41156  -0.40708  -0.38971  -0.38651
 Alpha virt. eigenvalues --   -0.38622  -0.38622  -0.34349  -0.33346  -0.30562
 Alpha virt. eigenvalues --   -0.30562  -0.30338  -0.29036  -0.26752  -0.26620
 Alpha virt. eigenvalues --   -0.26618  -0.21339  -0.18841  -0.18783  -0.18782
 Alpha virt. eigenvalues --   -0.18290  -0.16958  -0.11320  -0.11318  -0.10675
 Alpha virt. eigenvalues --   -0.08326  -0.07206  -0.07205  -0.06955  -0.06188
 Alpha virt. eigenvalues --   -0.03283  -0.03281   0.01137   0.03922   0.03927
 Alpha virt. eigenvalues --    0.04691   0.04692   0.05324   0.07416   0.07437
 Alpha virt. eigenvalues --    0.09389   0.09391   0.09868   0.11203   0.13380
 Alpha virt. eigenvalues --    0.13383   0.14678   0.15434   0.19030   0.19034
 Alpha virt. eigenvalues --    0.19036   0.23064   0.32342   0.32342   0.32465
 Alpha virt. eigenvalues --    0.33513   0.37087   0.38364   0.38369   0.41427
 Alpha virt. eigenvalues --    0.46726   0.49033   0.51100   0.51103   0.51885
 Alpha virt. eigenvalues --    0.58025   0.59188   0.59193   0.66876   0.67956
 Alpha virt. eigenvalues --    0.68738   0.68740   0.70883   0.71211   0.75489
 Alpha virt. eigenvalues --    0.75491   0.78221   0.79519   0.79520   0.83204
 Alpha virt. eigenvalues --    0.86983   0.87031   0.88288   0.88292   0.89571
 Alpha virt. eigenvalues --    0.97846   0.99321   0.99326   1.00575   1.05464
 Alpha virt. eigenvalues --    1.12069   1.14839   1.14849   1.17746   1.21992
 Alpha virt. eigenvalues --    1.23186   1.23188   1.27910   1.30446   1.31410
 Alpha virt. eigenvalues --    1.31417   1.32092   1.37580   1.38489   1.38490
 Alpha virt. eigenvalues --    1.40921   1.40923   1.40979   1.41444   1.44654
 Alpha virt. eigenvalues --    1.44656   1.46379   1.51035   1.55570   1.59251
 Alpha virt. eigenvalues --    1.62351   1.62357   1.64872   1.67806   1.67809
 Alpha virt. eigenvalues --    1.68911   1.83702   1.86021   1.86022   1.87364
 Alpha virt. eigenvalues --    1.96222   1.96227   1.96724   2.04514   2.28705
 Alpha virt. eigenvalues --    2.29678   2.32946   2.32959   2.46082   2.46084
 Alpha virt. eigenvalues --    2.46322   2.47276   2.63642   2.64531   2.64537
 Alpha virt. eigenvalues --    2.65223   2.65480   2.65678   2.65681   2.66926
 Alpha virt. eigenvalues --    2.73156   2.73839   2.74298   2.74300   2.80932
 Alpha virt. eigenvalues --    2.81552   2.81559   2.82733   2.87929   2.89927
 Alpha virt. eigenvalues --    2.90850   2.90853   3.02180   3.02183   3.04042
 Alpha virt. eigenvalues --    3.04364   3.15951   3.15953   3.16201   3.16687
 Alpha virt. eigenvalues --    3.22208   3.24404   3.25052   3.26671   3.26681
 Alpha virt. eigenvalues --    3.27452   3.27458   3.28450   3.29295   3.29825
 Alpha virt. eigenvalues --    3.29831   3.30831   3.38341   3.38347   3.40153
 Alpha virt. eigenvalues --    3.41283   3.58675   3.58677   3.59726   3.60484
 Alpha virt. eigenvalues --    3.65278   3.65281   3.66168   3.66285   3.66831
 Alpha virt. eigenvalues --    3.66835   3.68610   3.69142   3.96700   3.96702
 Alpha virt. eigenvalues --    3.97148   3.97613   4.07754   4.07975   4.10069
 Alpha virt. eigenvalues --    4.10076   4.34897   4.35951   4.35953   4.39248
 Alpha virt. eigenvalues --    4.44289   4.50189   4.50259   4.50263   4.88289
 Alpha virt. eigenvalues --    4.88501   4.89800   4.89807   5.31855   5.32641
 Alpha virt. eigenvalues --    5.32644   5.33640   5.65362   5.65364   5.65785
 Alpha virt. eigenvalues --    5.65867   5.66919   5.67112   5.67113   5.67974
 Alpha virt. eigenvalues --    5.85131   5.86461   5.86652   5.87093   5.87097
 Alpha virt. eigenvalues --    5.90423   5.91755   5.91757   5.99947   5.99950
 Alpha virt. eigenvalues --    6.00481   6.00916   6.01160   6.01164   6.02262
 Alpha virt. eigenvalues --    6.03193   6.16998   6.23382   6.23383   6.24802
 Alpha virt. eigenvalues --    6.32344   6.32891   6.34802   6.34804   6.58644
 Alpha virt. eigenvalues --    6.58769   6.59566   6.59567   7.08203   7.10457
 Alpha virt. eigenvalues --    7.10936   7.10941  11.94470  11.95199  11.96916
 Alpha virt. eigenvalues --   11.96925
     Molecular Orbital Coefficients:
                           1         2         3         4         5
                           O         O         O         O         O
     Eigenvalues --  -161.20991 -19.35963 -19.35963 -19.35963 -19.35962
   1 1   Sc 1S          0.99872   0.00000   0.00000   0.00000   0.00000
   2        2S          0.00475  -0.00005  -0.00005  -0.00005  -0.00005
   3        3S         -0.00075   0.00020   0.00020   0.00021   0.00021
   4        4S         -0.00321   0.00147   0.00146   0.00151   0.00151
   5        5S         -0.00227   0.00054   0.00054   0.00056   0.00056
   6        6S          0.00098  -0.00029  -0.00029  -0.00030  -0.00030
   7        7S         -0.00044   0.00013   0.00013   0.00014   0.00014
   8        8PX         0.00000  -0.00000   0.00000  -0.00000   0.00000
   9        8PY        -0.00000   0.00000  -0.00001  -0.00000   0.00001
  10        8PZ         0.00000  -0.00001  -0.00000   0.00001   0.00000
  11        9PX         0.00000   0.00009  -0.00009   0.00010  -0.00010
  12        9PY         0.00000  -0.00007   0.00012   0.00007  -0.00012
  13        9PZ        -0.00000   0.00012   0.00007  -0.00012  -0.00007
  14       10PX         0.00000   0.00058  -0.00057   0.00059  -0.00059
  15       10PY         0.00000  -0.00037   0.00079   0.00036  -0.00077
  16       10PZ        -0.00000   0.00079   0.00037  -0.00077  -0.00036
  17       11PX        -0.00000   0.00019  -0.00019   0.00019  -0.00019
  18       11PY        -0.00000  -0.00026   0.00016   0.00026  -0.00016
  19       11PZ        -0.00000   0.00016   0.00026  -0.00016  -0.00026
  20       12PX        -0.00000  -0.00027   0.00027  -0.00028   0.00028
  21       12PY        -0.00000   0.00020  -0.00035  -0.00019   0.00034
  22       12PZ         0.00000  -0.00035  -0.00020   0.00034   0.00019
  23       13PX        -0.00000   0.00004  -0.00004   0.00004  -0.00004
  24       13PY         0.00000  -0.00006   0.00005   0.00006  -0.00005
  25       13PZ        -0.00000   0.00005   0.00006  -0.00005  -0.00006
  26       14D 0        0.00001   0.00013  -0.00020   0.00013  -0.00020
  27       14D+1       -0.00000   0.00060  -0.00035  -0.00061   0.00035
  28       14D-1        0.00000  -0.00053   0.00053  -0.00053   0.00053
  29       14D+2       -0.00002   0.00015  -0.00004   0.00016  -0.00002
  30       14D-2        0.00000  -0.00036  -0.00061   0.00034   0.00060
  31       15D 0        0.00001   0.00006  -0.00014   0.00006  -0.00015
  32       15D+1       -0.00000   0.00062  -0.00029  -0.00062   0.00030
  33       15D-1        0.00000  -0.00059   0.00059  -0.00059   0.00059
  34       15D+2       -0.00001   0.00012   0.00000   0.00014   0.00002
  35       15D-2        0.00000  -0.00030  -0.00063   0.00029   0.00061
  36       16D 0       -0.00000  -0.00004   0.00004  -0.00004   0.00004
  37       16D+1        0.00000  -0.00008   0.00006   0.00008  -0.00006
  38       16D-1       -0.00000   0.00005  -0.00005   0.00005  -0.00005
  39       16D+2        0.00000  -0.00002   0.00002  -0.00003   0.00002
  40       16D-2       -0.00000   0.00006   0.00008  -0.00006  -0.00008
  41       17D 0       -0.00000   0.00000   0.00003   0.00000   0.00003
  42       17D+1        0.00000   0.00000   0.00009   0.00000  -0.00009
  43       17D-1       -0.00000   0.00003  -0.00003   0.00003  -0.00003
  44       17D+2        0.00000  -0.00004  -0.00002  -0.00004  -0.00002
  45       17D-2       -0.00000   0.00009   0.00000  -0.00009   0.00000
  46       18F 0       -0.00000   0.00001  -0.00003  -0.00001   0.00003
  47       18F+1       -0.00000   0.00000  -0.00000   0.00000  -0.00000
  48       18F-1        0.00000  -0.00000  -0.00001   0.00000   0.00001
  49       18F+2        0.00000   0.00000   0.00002  -0.00000  -0.00002
  50       18F-2        0.00001  -0.00004  -0.00004  -0.00004  -0.00004
  51       18F+3       -0.00000  -0.00001   0.00001  -0.00000   0.00001
  52       18F-3        0.00000  -0.00003  -0.00001   0.00003   0.00001
  53       19F 0       -0.00000  -0.00020  -0.00028   0.00019   0.00027
  54       19F+1       -0.00019   0.00055   0.00011   0.00056   0.00012
  55       19F-1        0.00000  -0.00036  -0.00006   0.00035   0.00006
  56       19F+2        0.00000   0.00023  -0.00024  -0.00024   0.00023
  57       19F-2        0.00035  -0.00032  -0.00032  -0.00032  -0.00033
  58       19F+3       -0.00015  -0.00003   0.00054  -0.00002   0.00054
  59       19F-3        0.00000  -0.00008   0.00029   0.00008  -0.00031
  60       20G 0        0.00004  -0.00012  -0.00003  -0.00012  -0.00003
  61       20G+1        0.00000   0.00006   0.00010  -0.00006  -0.00010
  62       20G-1        0.00005  -0.00005  -0.00013  -0.00005  -0.00013
  63       20G+2       -0.00002   0.00009   0.00001   0.00010   0.00001
  64       20G-2        0.00000  -0.00019  -0.00001   0.00018   0.00001
  65       20G+3        0.00000  -0.00004   0.00017   0.00003  -0.00016
  66       20G-3        0.00002  -0.00013   0.00007  -0.00014   0.00007
  67       20G+4        0.00005  -0.00005  -0.00015  -0.00005  -0.00016
  68       20G-4       -0.00000  -0.00003   0.00007   0.00003  -0.00006
  69 2   O  1S         -0.00002   0.97331   0.00204   0.00835   0.00114
  70        2S         -0.00009  -0.00725  -0.00002  -0.00010  -0.00007
  71        3S          0.00000   0.05102   0.00011   0.00045   0.00007
  72        4S          0.00046   0.00446   0.00025   0.00003   0.00020
  73        5PX         0.00000   0.00041   0.00000   0.00001   0.00000
  74        5PY        -0.00000  -0.00028   0.00001   0.00000   0.00001
  75        5PZ         0.00000   0.00048   0.00000   0.00000  -0.00001
  76        6PX         0.00001   0.00092  -0.00002  -0.00000  -0.00004
  77        6PY         0.00002  -0.00065  -0.00008  -0.00003  -0.00010
  78        6PZ        -0.00000   0.00110   0.00001   0.00002   0.00005
  79        7PX        -0.00017   0.00124  -0.00016   0.00013  -0.00049
  80        7PY         0.00021  -0.00083  -0.00028   0.00003  -0.00083
  81        7PZ        -0.00026   0.00149   0.00007  -0.00006  -0.00004
  82        8D 0        0.00000  -0.00007  -0.00001  -0.00000   0.00000
  83        8D+1       -0.00000   0.00015  -0.00000  -0.00000  -0.00000
  84        8D-1        0.00000  -0.00012  -0.00000   0.00000   0.00000
  85        8D+2        0.00000  -0.00003   0.00000  -0.00001   0.00001
  86        8D-2       -0.00000   0.00010   0.00000  -0.00000  -0.00000
  87        9D 0       -0.00001  -0.00039   0.00004  -0.00001  -0.00003
  88        9D+1        0.00002  -0.00003  -0.00001   0.00000  -0.00004
  89        9D-1       -0.00000   0.00002  -0.00003  -0.00000  -0.00008
  90        9D+2        0.00000  -0.00020  -0.00006   0.00005  -0.00013
  91        9D-2        0.00003   0.00066  -0.00002   0.00002  -0.00001
  92       10F 0       -0.00000  -0.00017  -0.00001   0.00000  -0.00000
  93       10F+1       -0.00000  -0.00003  -0.00000   0.00000   0.00000
  94       10F-1        0.00000   0.00001   0.00000  -0.00000   0.00000
  95       10F+2       -0.00000  -0.00005  -0.00001   0.00000  -0.00002
  96       10F-2        0.00001   0.00016  -0.00000   0.00000  -0.00000
  97       10F+3        0.00000   0.00007   0.00000   0.00000   0.00001
  98       10F-3        0.00001   0.00022  -0.00000   0.00000   0.00000
  99 3   H  1S         -0.00001   0.00032  -0.00000  -0.00002  -0.00002
 100        2S         -0.00005  -0.00326   0.00019  -0.00005   0.00055
 101        3S          0.00004  -0.00047  -0.00007   0.00004   0.00013
 102        4PX         0.00001   0.00036  -0.00001   0.00001  -0.00001
 103        4PY         0.00001   0.00012  -0.00001  -0.00001  -0.00002
 104        4PZ         0.00000   0.00021  -0.00001   0.00001  -0.00001
 105        5PX         0.00003   0.00152  -0.00003  -0.00002  -0.00019
 106        5PY        -0.00005   0.00064   0.00002   0.00006  -0.00003
 107        5PZ         0.00004   0.00082  -0.00004  -0.00000  -0.00009
 108        6D 0       -0.00000   0.00022  -0.00000  -0.00000  -0.00001
 109        6D+1       -0.00001  -0.00075   0.00001   0.00000   0.00001
 110        6D-1        0.00000  -0.00036   0.00000  -0.00001   0.00001
 111        6D+2       -0.00001  -0.00062  -0.00000   0.00001   0.00001
 112        6D-2        0.00001  -0.00057  -0.00000  -0.00001   0.00002
 113 4   O  1S         -0.00002  -0.00835  -0.00706   0.97328   0.00350
 114        2S         -0.00009   0.00003  -0.00001  -0.00725  -0.00003
 115        3S          0.00000  -0.00043  -0.00036   0.05102   0.00018
 116        4S          0.00046  -0.00005   0.00016   0.00446   0.00026
 117        5PX         0.00000  -0.00000  -0.00000   0.00042   0.00000
 118        5PY         0.00000  -0.00001  -0.00001   0.00028  -0.00001
 119        5PZ        -0.00000   0.00001   0.00001  -0.00048  -0.00000
 120        6PX         0.00001  -0.00002  -0.00005   0.00093  -0.00002
 121        6PY        -0.00002   0.00002   0.00009   0.00064   0.00008
 122        6PZ         0.00000  -0.00000  -0.00004  -0.00110  -0.00002
 123        7PX        -0.00018   0.00011  -0.00049   0.00125  -0.00016
 124        7PY        -0.00021  -0.00004   0.00083   0.00082   0.00030
 125        7PZ         0.00026   0.00008   0.00005  -0.00149  -0.00007
 126        8D 0        0.00000   0.00000   0.00001  -0.00007  -0.00001
 127        8D+1        0.00000   0.00000   0.00000  -0.00016   0.00000
 128        8D-1        0.00000   0.00000   0.00001  -0.00012  -0.00000
 129        8D+2        0.00000  -0.00001   0.00001  -0.00003   0.00000
 130        8D-2        0.00000   0.00001   0.00000  -0.00010  -0.00000
 131        9D 0       -0.00001  -0.00000  -0.00002  -0.00039   0.00004
 132        9D+1       -0.00002  -0.00001   0.00004   0.00003   0.00001
 133        9D-1       -0.00000  -0.00000  -0.00008   0.00002  -0.00003
 134        9D+2        0.00000   0.00006  -0.00013  -0.00022  -0.00006
 135        9D-2       -0.00003  -0.00001   0.00002  -0.00065   0.00002
 136       10F 0        0.00000  -0.00000  -0.00000   0.00016   0.00001
 137       10F+1       -0.00000   0.00000   0.00000  -0.00003  -0.00000
 138       10F-1       -0.00000   0.00000  -0.00000  -0.00001  -0.00000
 139       10F+2        0.00000  -0.00000   0.00001   0.00006   0.00001
 140       10F-2        0.00001  -0.00000  -0.00001   0.00016  -0.00000
 141       10F+3        0.00000   0.00000   0.00001   0.00006   0.00000
 142       10F-3       -0.00001  -0.00000  -0.00000  -0.00023   0.00000
 143 5   H  1S         -0.00001   0.00001  -0.00000   0.00032   0.00002
 144        2S          0.00007   0.00007  -0.00067  -0.00318  -0.00038
 145        3S          0.00005  -0.00004  -0.00002  -0.00053  -0.00008
 146        4PX        -0.00000  -0.00000   0.00000   0.00000  -0.00001
 147        4PY         0.00000  -0.00000   0.00003   0.00037   0.00001
 148        4PZ        -0.00000   0.00001  -0.00002  -0.00022   0.00000
 149        5PX         0.00004   0.00002  -0.00003  -0.00009   0.00000
 150        5PY        -0.00002  -0.00002   0.00019   0.00161   0.00015
 151        5PZ        -0.00001  -0.00003  -0.00012  -0.00085  -0.00010
 152        6D 0       -0.00000   0.00000   0.00000   0.00019   0.00000
 153        6D+1        0.00000   0.00001  -0.00001  -0.00009  -0.00000
 154        6D-1        0.00000  -0.00000   0.00002   0.00085   0.00002
 155        6D+2       -0.00000  -0.00001   0.00001   0.00082   0.00003
 156        6D-2       -0.00001  -0.00001   0.00001   0.00006   0.00001
 157 6   O  1S         -0.00002  -0.00110  -0.01185  -0.00360   0.97327
 158        2S         -0.00009   0.00001   0.00005  -0.00004  -0.00725
 159        3S          0.00000  -0.00006  -0.00061  -0.00018   0.05102
 160        4S          0.00046   0.00024  -0.00007   0.00018   0.00446
 161        5PX        -0.00000  -0.00000   0.00000   0.00000  -0.00042
 162        5PY        -0.00000  -0.00000   0.00001   0.00001  -0.00048
 163        5PZ        -0.00000   0.00001   0.00001   0.00001  -0.00028
 164        6PX        -0.00001   0.00003   0.00002   0.00004  -0.00093
 165        6PY         0.00000  -0.00001  -0.00000  -0.00005  -0.00110
 166        6PZ         0.00002  -0.00008  -0.00002  -0.00010  -0.00064
 167        7PX         0.00018   0.00016  -0.00011   0.00049  -0.00125
 168        7PY         0.00025  -0.00007   0.00009   0.00004  -0.00148
 169        7PZ         0.00021  -0.00028   0.00005  -0.00083  -0.00083
 170        8D 0       -0.00000   0.00000   0.00001  -0.00001   0.00006
 171        8D+1        0.00000  -0.00000   0.00001   0.00000  -0.00010
 172        8D-1       -0.00000   0.00000  -0.00000  -0.00000   0.00012
 173        8D+2       -0.00000   0.00001  -0.00001   0.00000   0.00004
 174        8D-2       -0.00000  -0.00000  -0.00000  -0.00000   0.00015
 175        9D 0        0.00000   0.00003  -0.00005   0.00013   0.00037
 176        9D+1       -0.00003   0.00002  -0.00001   0.00002  -0.00066
 177        9D-1        0.00000   0.00003   0.00000   0.00008  -0.00001
 178        9D+2        0.00001  -0.00006   0.00003  -0.00004   0.00023
 179        9D-2        0.00002  -0.00001   0.00000  -0.00004  -0.00003
 180       10F 0       -0.00001   0.00000   0.00000  -0.00000  -0.00019
 181       10F+1       -0.00000   0.00000   0.00000   0.00001   0.00005
 182       10F-1       -0.00000  -0.00001   0.00001  -0.00001  -0.00015
 183       10F+2        0.00000  -0.00000   0.00000  -0.00000   0.00013
 184       10F-2        0.00001  -0.00001  -0.00000  -0.00000   0.00016
 185       10F+3       -0.00000  -0.00000   0.00000  -0.00000  -0.00005
 186       10F-3       -0.00000  -0.00000   0.00000   0.00001  -0.00009
 187 7   H  1S         -0.00001  -0.00001  -0.00002  -0.00002   0.00032
 188        2S         -0.00005   0.00020   0.00002   0.00057  -0.00325
 189        3S          0.00004  -0.00007   0.00005   0.00013  -0.00047
 190        4PX        -0.00001   0.00001  -0.00000   0.00001  -0.00036
 191        4PY        -0.00000   0.00001  -0.00001   0.00001  -0.00021
 192        4PZ         0.00001  -0.00001  -0.00001  -0.00002   0.00012
 193        5PX        -0.00003   0.00004   0.00005   0.00019  -0.00152
 194        5PY        -0.00004   0.00005   0.00002   0.00009  -0.00081
 195        5PZ        -0.00005   0.00002   0.00005  -0.00003   0.00065
 196        6D 0        0.00001  -0.00000  -0.00001  -0.00001   0.00042
 197        6D+1       -0.00001   0.00000  -0.00000  -0.00002   0.00058
 198        6D-1       -0.00000  -0.00001   0.00001  -0.00001   0.00036
 199        6D+2       -0.00000   0.00000   0.00001   0.00001  -0.00051
 200        6D-2       -0.00001   0.00002   0.00002   0.00001  -0.00074
 201 8   O  1S         -0.00002  -0.00213   0.97324   0.00698   0.01186
 202        2S         -0.00009  -0.00005  -0.00725  -0.00006  -0.00012
 203        3S          0.00000  -0.00010   0.05102   0.00036   0.00063
 204        4S          0.00046   0.00018   0.00446   0.00028   0.00004
 205        5PX        -0.00000  -0.00000  -0.00041  -0.00001  -0.00001
 206        5PY         0.00000  -0.00001   0.00048   0.00001   0.00000
 207        5PZ         0.00000  -0.00001   0.00028  -0.00001  -0.00000
 208        6PX        -0.00001   0.00004  -0.00092   0.00002  -0.00000
 209        6PY        -0.00000   0.00005   0.00111   0.00002   0.00003
 210        6PZ        -0.00002   0.00010   0.00064   0.00008   0.00004
 211        7PX         0.00017   0.00049  -0.00124   0.00016  -0.00013
 212        7PY        -0.00026  -0.00005   0.00150   0.00008  -0.00005
 213        7PZ        -0.00021   0.00083   0.00083   0.00030  -0.00002
 214        8D 0       -0.00000  -0.00002   0.00006   0.00000   0.00001
 215        8D+1       -0.00000  -0.00000   0.00010   0.00000  -0.00000
 216        8D-1       -0.00000  -0.00000   0.00012   0.00000   0.00000
 217        8D+2       -0.00000   0.00000   0.00004   0.00001  -0.00001
 218        8D-2        0.00000   0.00000  -0.00016   0.00000  -0.00000
 219        9D 0        0.00000   0.00013   0.00038   0.00003  -0.00004
 220        9D+1        0.00003  -0.00002   0.00066  -0.00001   0.00003
 221        9D-1        0.00000   0.00008  -0.00002   0.00003   0.00000
 222        9D+2        0.00001  -0.00004   0.00023  -0.00006   0.00003
 223        9D-2       -0.00002   0.00004   0.00002   0.00001  -0.00000
 224       10F 0        0.00001   0.00000   0.00019   0.00000   0.00000
 225       10F+1       -0.00000   0.00001   0.00006   0.00000   0.00000
 226       10F-1        0.00000   0.00001   0.00015   0.00001  -0.00000
 227       10F+2       -0.00000   0.00000  -0.00013   0.00000  -0.00000
 228       10F-2        0.00001  -0.00000   0.00016  -0.00000   0.00000
 229       10F+3       -0.00000  -0.00000  -0.00005  -0.00000   0.00000
 230       10F-3        0.00000  -0.00001   0.00010   0.00000   0.00000
 231 9   H  1S         -0.00001   0.00000   0.00032   0.00002   0.00001
 232        2S          0.00007  -0.00069  -0.00318  -0.00039  -0.00000
 233        3S          0.00005  -0.00003  -0.00053  -0.00008  -0.00005
 234        4PX         0.00000  -0.00000  -0.00000   0.00001   0.00000
 235        4PY         0.00000   0.00002   0.00022  -0.00000  -0.00001
 236        4PZ         0.00000   0.00003   0.00037   0.00002   0.00000
 237        5PX        -0.00004   0.00003   0.00011  -0.00000  -0.00002
 238        5PY         0.00001   0.00013   0.00084   0.00011   0.00004
 239        5PZ        -0.00002   0.00020   0.00161   0.00015   0.00001
 240        6D 0        0.00000  -0.00002  -0.00080  -0.00003  -0.00001
 241        6D+1        0.00001  -0.00001  -0.00007  -0.00001   0.00001
 242        6D-1       -0.00000  -0.00003  -0.00085  -0.00002  -0.00002
 243        6D+2        0.00000   0.00001   0.00024   0.00001  -0.00000
 244        6D-2        0.00000  -0.00001  -0.00010  -0.00000   0.00001
 245 10  H  1S         -0.00001  -0.00002   0.00032  -0.00000  -0.00001
 246        2S         -0.00005   0.00056  -0.00326   0.00018  -0.00006
 247        3S          0.00004   0.00013  -0.00047  -0.00007   0.00004
 248        4PX        -0.00001   0.00001  -0.00036   0.00001  -0.00001
 249        4PY         0.00000  -0.00001   0.00021  -0.00001   0.00001
 250        4PZ        -0.00001   0.00002  -0.00012   0.00001   0.00001
 251        5PX        -0.00003   0.00019  -0.00151   0.00003   0.00002
 252        5PY         0.00004  -0.00009   0.00083  -0.00004   0.00000
 253        5PZ         0.00005   0.00003  -0.00065  -0.00002  -0.00006
 254        6D 0        0.00001  -0.00001   0.00042   0.00000  -0.00000
 255        6D+1        0.00001   0.00002  -0.00058  -0.00001  -0.00001
 256        6D-1       -0.00000  -0.00001   0.00037  -0.00000   0.00002
 257        6D+2       -0.00000   0.00001  -0.00049  -0.00000   0.00000
 258        6D-2        0.00001  -0.00001   0.00076  -0.00001   0.00000
 259 11  H  1S         -0.00001  -0.00002  -0.00002   0.00032  -0.00000
 260        2S         -0.00005   0.00001   0.00058  -0.00325   0.00020
 261        3S          0.00004   0.00005   0.00013  -0.00047  -0.00007
 262        4PX         0.00001   0.00001  -0.00001   0.00036  -0.00001
 263        4PY        -0.00001   0.00001   0.00002  -0.00013   0.00001
 264        4PZ        -0.00000  -0.00001   0.00001  -0.00021   0.00001
 265        5PX         0.00003  -0.00005  -0.00020   0.00151  -0.00004
 266        5PY         0.00004  -0.00005   0.00004  -0.00066  -0.00002
 267        5PZ        -0.00004   0.00002   0.00009  -0.00082   0.00004
 268        6D 0       -0.00000  -0.00000  -0.00001   0.00022   0.00000
 269        6D+1        0.00001  -0.00001  -0.00001   0.00075  -0.00001
 270        6D-1        0.00000  -0.00001   0.00002  -0.00037   0.00000
 271        6D+2       -0.00001   0.00002   0.00002  -0.00060  -0.00000
 272        6D-2       -0.00001   0.00000  -0.00002   0.00059   0.00000
 273 12  H  1S         -0.00001   0.00002   0.00000   0.00000   0.00032
 274        2S          0.00007  -0.00035   0.00008  -0.00069  -0.00318
 275        3S          0.00005  -0.00008  -0.00004  -0.00003  -0.00053
 276        4PX         0.00000   0.00001   0.00000  -0.00000  -0.00000
 277        4PY        -0.00000   0.00001   0.00002  -0.00002  -0.00022
 278        4PZ        -0.00000  -0.00001   0.00000  -0.00003  -0.00037
 279        5PX        -0.00004  -0.00000  -0.00002   0.00003   0.00009
 280        5PY        -0.00001  -0.00010  -0.00002  -0.00013  -0.00085
 281        5PZ         0.00002  -0.00014   0.00003  -0.00020  -0.00161
 282        6D 0        0.00000  -0.00002   0.00001  -0.00002  -0.00080
 283        6D+1       -0.00001   0.00001  -0.00001   0.00001   0.00006
 284        6D-1       -0.00000  -0.00002   0.00001  -0.00003  -0.00085
 285        6D+2        0.00000   0.00001  -0.00001   0.00001   0.00025
 286        6D-2       -0.00000  -0.00000  -0.00001   0.00001   0.00009
 287 13  H  1S         -0.00001   0.00032   0.00002   0.00001   0.00000
 288        2S          0.00007  -0.00318  -0.00036   0.00001  -0.00070
 289        3S          0.00005  -0.00053  -0.00008  -0.00005  -0.00003
 290        4PX        -0.00000  -0.00000  -0.00001  -0.00000   0.00000
 291        4PY        -0.00000  -0.00037  -0.00001  -0.00000  -0.00003
 292        4PZ         0.00000   0.00022  -0.00000  -0.00001   0.00003
 293        5PX         0.00004  -0.00011   0.00000   0.00002  -0.00003
 294        5PY         0.00002  -0.00161  -0.00014  -0.00000  -0.00021
 295        5PZ         0.00001   0.00084   0.00010   0.00004   0.00013
 296        6D 0       -0.00000   0.00019  -0.00000   0.00000   0.00000
 297        6D+1       -0.00000   0.00010   0.00000  -0.00001   0.00001
 298        6D-1        0.00000   0.00085   0.00002   0.00001   0.00003
 299        6D+2       -0.00000   0.00082   0.00002   0.00001   0.00002
 300        6D-2        0.00001  -0.00008  -0.00001   0.00001  -0.00001
                           6         7         8         9        10
                           O         O         O         O         O
     Eigenvalues --   -18.08465 -15.06675 -15.06675 -15.06665  -2.65115
   1 1   Sc 1S         -0.29338   0.00000  -0.00000   0.00000   0.10306
   2        2S          1.04289  -0.00000   0.00000  -0.00000  -0.40721
   3        3S         -0.00551   0.00000   0.00000   0.00000   0.60967
   4        4S         -0.01627   0.00000  -0.00000  -0.00000  -0.05380
   5        5S         -0.01085   0.00000  -0.00000  -0.00000  -0.03522
   6        6S          0.00504  -0.00000  -0.00000  -0.00000   0.50078
   7        7S         -0.00200   0.00000  -0.00000  -0.00000  -0.00735
   8        8PX         0.00000   0.00254   0.00376   1.00104  -0.00000
   9        8PY         0.00000   0.80709   0.59219  -0.00427  -0.00000
  10        8PZ        -0.00000  -0.59220   0.80709  -0.00153  -0.00000
  11        9PX         0.00000  -0.00001  -0.00002  -0.00583   0.00000
  12        9PY         0.00000  -0.00471  -0.00346   0.00002   0.00000
  13        9PZ        -0.00000   0.00346  -0.00471   0.00001   0.00000
  14       10PX         0.00000  -0.00003  -0.00004  -0.01167   0.00000
  15       10PY         0.00000  -0.00939  -0.00686   0.00005   0.00000
  16       10PZ        -0.00000   0.00686  -0.00939   0.00002  -0.00000
  17       11PX        -0.00000   0.00001   0.00002   0.00468  -0.00000
  18       11PY        -0.00000   0.00368   0.00261  -0.00002  -0.00000
  19       11PZ        -0.00000  -0.00260   0.00368  -0.00001  -0.00000
  20       12PX        -0.00000   0.00002   0.00003   0.00795   0.00000
  21       12PY        -0.00000   0.00642   0.00472  -0.00003   0.00000
  22       12PZ         0.00000  -0.00472   0.00642  -0.00001   0.00000
  23       13PX        -0.00000  -0.00000  -0.00000  -0.00079  -0.00000
  24       13PY         0.00000  -0.00067  -0.00047   0.00000   0.00000
  25       13PZ        -0.00000   0.00047  -0.00067   0.00000  -0.00000
  26       14D 0        0.00005   0.00000   0.00000  -0.00118   0.00009
  27       14D+1       -0.00000   0.00212   0.00025   0.00002  -0.00000
  28       14D-1        0.00000  -0.00002  -0.00000   0.00154   0.00000
  29       14D+2       -0.00009  -0.00000   0.00003  -0.00068  -0.00016
  30       14D-2        0.00000  -0.00025   0.00212   0.00001   0.00000
  31       15D 0        0.00005   0.00000   0.00000  -0.00122   0.00007
  32       15D+1       -0.00000   0.00218   0.00032   0.00002  -0.00000
  33       15D-1        0.00000  -0.00002  -0.00000   0.00153   0.00000
  34       15D+2       -0.00008  -0.00000   0.00003  -0.00070  -0.00012
  35       15D-2        0.00000  -0.00032   0.00218   0.00001   0.00000
  36       16D 0       -0.00000  -0.00000   0.00000   0.00006   0.00003
  37       16D+1        0.00000  -0.00009   0.00001  -0.00000   0.00000
  38       16D-1       -0.00000   0.00000  -0.00000  -0.00006  -0.00000
  39       16D+2        0.00001  -0.00000  -0.00000   0.00004  -0.00005
  40       16D-2       -0.00000  -0.00001  -0.00009  -0.00000   0.00000
  41       17D 0       -0.00002  -0.00000  -0.00000   0.00042  -0.00003
  42       17D+1        0.00000  -0.00053  -0.00009  -0.00000   0.00000
  43       17D-1       -0.00000   0.00000   0.00000  -0.00024   0.00000
  44       17D+2        0.00003   0.00000  -0.00001   0.00024   0.00005
  45       17D-2       -0.00000   0.00009  -0.00053  -0.00000  -0.00000
  46       18F 0       -0.00000  -0.00001  -0.00003  -0.00000   0.00000
  47       18F+1       -0.00002   0.00000  -0.00000   0.00002   0.00004
  48       18F-1        0.00000   0.00003  -0.00002  -0.00000  -0.00000
  49       18F+2        0.00000  -0.00002  -0.00001  -0.00000   0.00000
  50       18F-2        0.00004   0.00000   0.00000   0.00000   0.00001
  51       18F+3       -0.00001   0.00000   0.00000  -0.00003   0.00003
  52       18F-3        0.00000   0.00002   0.00001   0.00000  -0.00000
  53       19F 0       -0.00000   0.00005   0.00106  -0.00000  -0.00000
  54       19F+1       -0.00105  -0.00000   0.00000  -0.00058  -0.00390
  55       19F-1        0.00001  -0.00070   0.00024   0.00000   0.00003
  56       19F+2        0.00003   0.00026   0.00007   0.00000   0.00010
  57       19F-2        0.00191  -0.00000  -0.00000  -0.00000   0.00780
  58       19F+3       -0.00081  -0.00002  -0.00000   0.00075  -0.00302
  59       19F-3        0.00002  -0.00079  -0.00013  -0.00002   0.00006
  60       20G 0        0.00022  -0.00000  -0.00000   0.00013   0.00044
  61       20G+1        0.00000  -0.00000  -0.00014  -0.00000   0.00000
  62       20G-1        0.00024   0.00000   0.00000  -0.00010   0.00024
  63       20G+2       -0.00012  -0.00000   0.00000  -0.00012  -0.00003
  64       20G-2        0.00000  -0.00031   0.00019   0.00000   0.00000
  65       20G+3        0.00000  -0.00020  -0.00028   0.00000   0.00000
  66       20G-3        0.00009   0.00000   0.00001   0.00027   0.00009
  67       20G+4        0.00027  -0.00000  -0.00000  -0.00016   0.00039
  68       20G-4       -0.00001  -0.00003  -0.00007   0.00000  -0.00001
  69 2   O  1S         -0.00008   0.00012  -0.00005  -0.00008  -0.00161
  70        2S         -0.00045   0.00062  -0.00025  -0.00044   0.00117
  71        3S          0.00000  -0.00005   0.00001   0.00003   0.00033
  72        4S          0.00246  -0.00258   0.00105   0.00176   0.01282
  73        5PX        -0.00000  -0.00002  -0.00001  -0.00003  -0.00078
  74        5PY        -0.00001  -0.00004  -0.00003  -0.00002   0.00052
  75        5PZ         0.00001   0.00001  -0.00002   0.00001  -0.00095
  76        6PX         0.00006   0.00022   0.00007   0.00018  -0.00068
  77        6PY         0.00008   0.00027   0.00021   0.00020   0.00073
  78        6PZ         0.00001   0.00001   0.00005  -0.00007  -0.00100
  79        7PX        -0.00097   0.00224  -0.00023  -0.00074  -0.00608
  80        7PY         0.00115  -0.00017   0.00081   0.00174   0.00516
  81        7PZ        -0.00141   0.00200  -0.00108  -0.00141  -0.00796
  82        8D 0        0.00000  -0.00003   0.00003   0.00001   0.00002
  83        8D+1       -0.00001  -0.00003   0.00002   0.00003   0.00001
  84        8D-1        0.00001   0.00003  -0.00000  -0.00002  -0.00002
  85        8D+2        0.00000   0.00000   0.00001   0.00003   0.00001
  86        8D-2       -0.00001   0.00004  -0.00002  -0.00003  -0.00005
  87        9D 0       -0.00003   0.00015  -0.00015  -0.00006   0.00021
  88        9D+1        0.00013   0.00017  -0.00002  -0.00004   0.00140
  89        9D-1       -0.00003   0.00002   0.00005   0.00014  -0.00084
  90        9D+2        0.00003   0.00015   0.00001  -0.00001   0.00020
  91        9D-2        0.00010  -0.00018   0.00011   0.00022  -0.00010
  92       10F 0       -0.00001   0.00001   0.00000  -0.00001  -0.00001
  93       10F+1       -0.00002   0.00000  -0.00001  -0.00002  -0.00019
  94       10F-1        0.00001  -0.00001  -0.00000   0.00000   0.00012
  95       10F+2       -0.00001   0.00003   0.00001   0.00002  -0.00009
  96       10F-2        0.00004  -0.00002   0.00002   0.00002   0.00027
  97       10F+3        0.00000  -0.00002  -0.00000  -0.00000   0.00004
  98       10F-3        0.00003  -0.00003   0.00002   0.00002   0.00017
  99 3   H  1S         -0.00003   0.00015   0.00000  -0.00001  -0.00000
 100        2S         -0.00024  -0.00146  -0.00035  -0.00045  -0.00050
 101        3S          0.00022  -0.00038  -0.00009  -0.00027   0.00139
 102        4PX         0.00005  -0.00001   0.00003   0.00005   0.00016
 103        4PY         0.00006   0.00003   0.00004   0.00003   0.00030
 104        4PZ         0.00001  -0.00003   0.00002  -0.00000  -0.00004
 105        5PX         0.00017   0.00041   0.00019   0.00031   0.00077
 106        5PY        -0.00023   0.00038  -0.00020  -0.00031  -0.00107
 107        5PZ         0.00021   0.00005   0.00029   0.00043   0.00113
 108        6D 0       -0.00001   0.00007  -0.00001  -0.00004   0.00004
 109        6D+1       -0.00005   0.00001  -0.00007  -0.00009  -0.00020
 110        6D-1        0.00000  -0.00001  -0.00001  -0.00000   0.00000
 111        6D+2       -0.00004   0.00001  -0.00004  -0.00009  -0.00013
 112        6D-2        0.00002  -0.00010   0.00003   0.00004  -0.00006
 113 4   O  1S         -0.00008  -0.00012   0.00005  -0.00008  -0.00161
 114        2S         -0.00045  -0.00062   0.00025  -0.00044   0.00117
 115        3S          0.00000   0.00005  -0.00001   0.00004   0.00033
 116        4S          0.00246   0.00257  -0.00105   0.00178   0.01281
 117        5PX        -0.00000   0.00002   0.00000  -0.00003  -0.00078
 118        5PY         0.00001  -0.00004  -0.00003   0.00002  -0.00051
 119        5PZ        -0.00001   0.00001  -0.00002  -0.00001   0.00095
 120        6PX         0.00006  -0.00022  -0.00006   0.00018  -0.00070
 121        6PY        -0.00008   0.00028   0.00021  -0.00020  -0.00072
 122        6PZ        -0.00001   0.00001   0.00005   0.00007   0.00100
 123        7PX        -0.00098  -0.00223   0.00024  -0.00078  -0.00615
 124        7PY        -0.00113  -0.00013   0.00081  -0.00173  -0.00508
 125        7PZ         0.00141   0.00198  -0.00108   0.00142   0.00795
 126        8D 0        0.00000   0.00003  -0.00003   0.00001   0.00002
 127        8D+1        0.00001  -0.00004   0.00002  -0.00003  -0.00001
 128        8D-1        0.00001  -0.00003   0.00000  -0.00002  -0.00002
 129        8D+2        0.00000   0.00000  -0.00001   0.00003   0.00001
 130        8D-2        0.00001   0.00004  -0.00001   0.00003   0.00005
 131        9D 0       -0.00003  -0.00015   0.00015  -0.00006   0.00021
 132        9D+1       -0.00013   0.00017  -0.00002   0.00004  -0.00141
 133        9D-1       -0.00002  -0.00002  -0.00005   0.00014  -0.00082
 134        9D+2        0.00003  -0.00015  -0.00001  -0.00002   0.00021
 135        9D-2       -0.00010  -0.00018   0.00011  -0.00022   0.00010
 136       10F 0        0.00001   0.00001   0.00000   0.00001   0.00001
 137       10F+1       -0.00002  -0.00000   0.00001  -0.00002  -0.00019
 138       10F-1       -0.00001  -0.00001  -0.00000  -0.00000  -0.00012
 139       10F+2        0.00001   0.00003   0.00001  -0.00001   0.00010
 140       10F-2        0.00004   0.00001  -0.00002   0.00002   0.00026
 141       10F+3        0.00000   0.00002   0.00000  -0.00001   0.00004
 142       10F-3       -0.00003  -0.00003   0.00002  -0.00002  -0.00017
 143 5   H  1S         -0.00005  -0.00001   0.00008  -0.00011  -0.00003
 144        2S          0.00039  -0.00059  -0.00072   0.00119   0.00078
 145        3S          0.00030  -0.00015  -0.00021   0.00046   0.00159
 146        4PX        -0.00001  -0.00003  -0.00001   0.00003  -0.00017
 147        4PY         0.00002   0.00008   0.00000   0.00001   0.00017
 148        4PZ        -0.00001  -0.00001   0.00003  -0.00001   0.00003
 149        5PX         0.00019   0.00048  -0.00010   0.00019   0.00108
 150        5PY        -0.00012   0.00020   0.00026  -0.00045  -0.00006
 151        5PZ        -0.00004  -0.00054  -0.00007   0.00007  -0.00073
 152        6D 0       -0.00001  -0.00005   0.00002  -0.00007   0.00002
 153        6D+1        0.00001   0.00003  -0.00001   0.00002   0.00006
 154        6D-1        0.00001   0.00012  -0.00001  -0.00001   0.00012
 155        6D+2       -0.00000   0.00004   0.00004  -0.00003   0.00008
 156        6D-2       -0.00004  -0.00010   0.00005  -0.00007  -0.00004
 157 6   O  1S         -0.00008   0.00005   0.00012   0.00008  -0.00161
 158        2S         -0.00045   0.00025   0.00062   0.00044   0.00117
 159        3S          0.00000  -0.00001  -0.00005  -0.00004   0.00033
 160        4S          0.00246  -0.00105  -0.00258  -0.00177   0.01281
 161        5PX         0.00000  -0.00001   0.00002  -0.00003   0.00079
 162        5PY        -0.00001  -0.00002  -0.00001   0.00001   0.00094
 163        5PZ        -0.00001   0.00003  -0.00004   0.00002   0.00051
 164        6PX        -0.00006   0.00006  -0.00022   0.00018   0.00070
 165        6PY        -0.00001   0.00005  -0.00001  -0.00007   0.00099
 166        6PZ         0.00008  -0.00021   0.00028  -0.00020   0.00073
 167        7PX         0.00098  -0.00024  -0.00225  -0.00077   0.00617
 168        7PY         0.00140  -0.00108  -0.00198  -0.00142   0.00791
 169        7PZ         0.00114  -0.00080  -0.00015  -0.00174   0.00512
 170        8D 0       -0.00000   0.00003   0.00001   0.00003  -0.00002
 171        8D+1        0.00001  -0.00001  -0.00004  -0.00003   0.00005
 172        8D-1       -0.00001  -0.00000  -0.00003  -0.00002   0.00002
 173        8D+2       -0.00000   0.00002   0.00002  -0.00001  -0.00001
 174        8D-2       -0.00001  -0.00002  -0.00004  -0.00003   0.00001
 175        9D 0       -0.00001  -0.00006  -0.00020  -0.00004  -0.00028
 176        9D+1       -0.00010   0.00011   0.00018   0.00022   0.00010
 177        9D-1        0.00003   0.00005  -0.00002   0.00014   0.00083
 178        9D+2        0.00004  -0.00013  -0.00005  -0.00004  -0.00006
 179        9D-2        0.00013   0.00002   0.00017   0.00004   0.00140
 180       10F 0       -0.00003   0.00001   0.00003   0.00002  -0.00021
 181       10F+1       -0.00000   0.00000  -0.00002   0.00001  -0.00001
 182       10F-1       -0.00001  -0.00001   0.00004  -0.00000  -0.00008
 183       10F+2        0.00001  -0.00001  -0.00000  -0.00001   0.00001
 184       10F-2        0.00004  -0.00002  -0.00001  -0.00002   0.00026
 185       10F+3       -0.00002   0.00001   0.00001   0.00002  -0.00019
 186       10F-3       -0.00000   0.00000  -0.00001   0.00002   0.00005
 187 7   H  1S         -0.00003  -0.00000   0.00015   0.00001  -0.00000
 188        2S         -0.00024   0.00035  -0.00146   0.00045  -0.00050
 189        3S          0.00022   0.00009  -0.00038   0.00027   0.00139
 190        4PX        -0.00004   0.00003   0.00001   0.00005  -0.00016
 191        4PY        -0.00001   0.00002   0.00003  -0.00000   0.00004
 192        4PZ         0.00006  -0.00004   0.00003  -0.00003   0.00030
 193        5PX        -0.00017   0.00019  -0.00041   0.00031  -0.00078
 194        5PY        -0.00021   0.00029  -0.00005   0.00043  -0.00112
 195        5PZ        -0.00023   0.00020   0.00038   0.00031  -0.00107
 196        6D 0        0.00004  -0.00004  -0.00005  -0.00010   0.00009
 197        6D+1       -0.00002   0.00003   0.00010   0.00003   0.00006
 198        6D-1       -0.00000  -0.00001   0.00001  -0.00000  -0.00000
 199        6D+2       -0.00002   0.00001  -0.00005   0.00001  -0.00010
 200        6D-2       -0.00005   0.00007   0.00001   0.00009  -0.00020
 201 8   O  1S         -0.00008  -0.00005  -0.00012   0.00008  -0.00161
 202        2S         -0.00045  -0.00025  -0.00062   0.00044   0.00117
 203        3S          0.00000   0.00001   0.00005  -0.00003   0.00033
 204        4S          0.00246   0.00106   0.00258  -0.00176   0.01281
 205        5PX         0.00000   0.00001  -0.00002  -0.00003   0.00077
 206        5PY         0.00001  -0.00002  -0.00001  -0.00001  -0.00095
 207        5PZ         0.00001   0.00003  -0.00004  -0.00002  -0.00051
 208        6PX        -0.00006  -0.00007   0.00022   0.00018   0.00068
 209        6PY         0.00001   0.00005  -0.00001   0.00007  -0.00100
 210        6PZ        -0.00008  -0.00021   0.00027   0.00020  -0.00073
 211        7PX         0.00096   0.00023   0.00222  -0.00075   0.00606
 212        7PY        -0.00141  -0.00109  -0.00201   0.00142  -0.00799
 213        7PZ        -0.00114  -0.00081  -0.00015   0.00173  -0.00512
 214        8D 0       -0.00000  -0.00003  -0.00001   0.00003  -0.00002
 215        8D+1       -0.00001  -0.00002  -0.00004   0.00003  -0.00005
 216        8D-1       -0.00001   0.00000   0.00003  -0.00002   0.00002
 217        8D+2       -0.00000  -0.00002  -0.00002  -0.00001  -0.00001
 218        8D-2        0.00001  -0.00002  -0.00003   0.00003  -0.00001
 219        9D 0       -0.00001   0.00006   0.00020  -0.00004  -0.00028
 220        9D+1        0.00010   0.00011   0.00018  -0.00022  -0.00009
 221        9D-1        0.00002  -0.00006   0.00002   0.00014   0.00083
 222        9D+2        0.00004   0.00014   0.00005  -0.00004  -0.00010
 223        9D-2       -0.00013   0.00002   0.00017  -0.00004  -0.00140
 224       10F 0        0.00003   0.00001   0.00003  -0.00002   0.00021
 225       10F+1       -0.00000  -0.00000   0.00002   0.00001  -0.00001
 226       10F-1        0.00001  -0.00001   0.00004   0.00000   0.00008
 227       10F+2       -0.00001  -0.00001  -0.00000   0.00001  -0.00001
 228       10F-2        0.00004   0.00002   0.00001  -0.00002   0.00026
 229       10F+3       -0.00002  -0.00001  -0.00001   0.00002  -0.00019
 230       10F-3        0.00000   0.00000  -0.00001  -0.00002  -0.00004
 231 9   H  1S         -0.00005  -0.00008  -0.00001   0.00011  -0.00003
 232        2S          0.00039   0.00072  -0.00059  -0.00119   0.00078
 233        3S          0.00030   0.00022  -0.00015  -0.00046   0.00159
 234        4PX         0.00001  -0.00001   0.00003   0.00003   0.00017
 235        4PY         0.00001   0.00003   0.00001  -0.00001  -0.00003
 236        4PZ         0.00002  -0.00000   0.00008  -0.00001   0.00017
 237        5PX        -0.00019  -0.00010  -0.00048   0.00020  -0.00108
 238        5PY         0.00004  -0.00007   0.00055   0.00007   0.00074
 239        5PZ        -0.00012  -0.00026   0.00020   0.00045  -0.00005
 240        6D 0        0.00001   0.00005  -0.00001  -0.00006  -0.00008
 241        6D+1        0.00004   0.00005   0.00010  -0.00007   0.00003
 242        6D-1       -0.00001  -0.00001  -0.00012  -0.00001  -0.00012
 243        6D+2        0.00001  -0.00001   0.00006  -0.00004   0.00002
 244        6D-2        0.00001   0.00001   0.00003  -0.00002   0.00005
 245 10  H  1S         -0.00003   0.00000  -0.00015   0.00001  -0.00000
 246        2S         -0.00024  -0.00035   0.00146   0.00045  -0.00050
 247        3S          0.00022  -0.00009   0.00038   0.00027   0.00139
 248        4PX        -0.00004  -0.00003  -0.00001   0.00005  -0.00016
 249        4PY         0.00002   0.00002   0.00003   0.00000  -0.00003
 250        4PZ        -0.00006  -0.00004   0.00003   0.00003  -0.00030
 251        5PX        -0.00017  -0.00019   0.00041   0.00031  -0.00077
 252        5PY         0.00022   0.00029  -0.00006  -0.00043   0.00113
 253        5PZ         0.00023   0.00020   0.00038  -0.00030   0.00107
 254        6D 0        0.00004   0.00004   0.00005  -0.00010   0.00009
 255        6D+1        0.00002   0.00003   0.00010  -0.00003  -0.00006
 256        6D-1       -0.00000   0.00001  -0.00001  -0.00000  -0.00000
 257        6D+2       -0.00002  -0.00001   0.00005   0.00001  -0.00010
 258        6D-2        0.00005   0.00007   0.00001  -0.00009   0.00020
 259 11  H  1S         -0.00003  -0.00015  -0.00000  -0.00001  -0.00000
 260        2S         -0.00024   0.00146   0.00035  -0.00044  -0.00050
 261        3S          0.00022   0.00038   0.00009  -0.00027   0.00139
 262        4PX         0.00004   0.00001  -0.00003   0.00005   0.00016
 263        4PY        -0.00006   0.00003   0.00004  -0.00003  -0.00030
 264        4PZ        -0.00001  -0.00003   0.00002   0.00000   0.00004
 265        5PX         0.00017  -0.00041  -0.00019   0.00031   0.00078
 266        5PY         0.00023   0.00038  -0.00020   0.00030   0.00106
 267        5PZ        -0.00021   0.00006   0.00029  -0.00043  -0.00113
 268        6D 0       -0.00001  -0.00007   0.00001  -0.00004   0.00004
 269        6D+1        0.00005   0.00001  -0.00007   0.00009   0.00020
 270        6D-1        0.00000   0.00001   0.00001  -0.00000  -0.00000
 271        6D+2       -0.00004  -0.00001   0.00004  -0.00009  -0.00013
 272        6D-2       -0.00002  -0.00010   0.00003  -0.00003   0.00006
 273 12  H  1S         -0.00005   0.00008   0.00001   0.00011  -0.00003
 274        2S          0.00039  -0.00071   0.00059  -0.00120   0.00078
 275        3S          0.00030  -0.00021   0.00015  -0.00046   0.00159
 276        4PX         0.00001   0.00001  -0.00003   0.00003   0.00017
 277        4PY        -0.00001   0.00003   0.00001   0.00001   0.00003
 278        4PZ        -0.00002  -0.00000   0.00008   0.00001  -0.00017
 279        5PX        -0.00019   0.00010   0.00049   0.00020  -0.00109
 280        5PY        -0.00004  -0.00007   0.00054  -0.00007  -0.00072
 281        5PZ         0.00012  -0.00026   0.00020  -0.00045   0.00005
 282        6D 0        0.00001  -0.00005   0.00001  -0.00006  -0.00008
 283        6D+1       -0.00004   0.00005   0.00010   0.00007  -0.00003
 284        6D-1       -0.00001   0.00001   0.00012  -0.00001  -0.00012
 285        6D+2        0.00001   0.00001  -0.00006  -0.00004   0.00002
 286        6D-2       -0.00001   0.00000   0.00003   0.00002  -0.00005
 287 13  H  1S         -0.00005   0.00001  -0.00008  -0.00011  -0.00003
 288        2S          0.00039   0.00058   0.00072   0.00120   0.00078
 289        3S          0.00030   0.00015   0.00021   0.00046   0.00159
 290        4PX        -0.00001   0.00003   0.00001   0.00003  -0.00017
 291        4PY        -0.00002   0.00008   0.00000  -0.00001  -0.00016
 292        4PZ         0.00001  -0.00001   0.00003   0.00001  -0.00003
 293        5PX         0.00019  -0.00048   0.00011   0.00020   0.00108
 294        5PY         0.00012   0.00020   0.00026   0.00045   0.00005
 295        5PZ         0.00004  -0.00054  -0.00007  -0.00007   0.00073
 296        6D 0       -0.00001   0.00005  -0.00002  -0.00007   0.00002
 297        6D+1       -0.00001   0.00003  -0.00001  -0.00002  -0.00005
 298        6D-1        0.00001  -0.00012   0.00001  -0.00001   0.00012
 299        6D+2       -0.00000  -0.00004  -0.00004  -0.00003   0.00008
 300        6D-2        0.00004  -0.00010   0.00005   0.00007   0.00003
                          11        12        13        14        15
                           O         O         O         O         O
     Eigenvalues --    -1.87182  -1.87182  -1.87157  -1.51482  -1.51173
   1 1   Sc 1S         -0.00000  -0.00000  -0.00000  -0.00629   0.00001
   2        2S          0.00000   0.00000   0.00000   0.02443  -0.00003
   3        3S         -0.00000  -0.00000  -0.00000  -0.05612   0.00007
   4        4S          0.00001   0.00000   0.00000   0.00962  -0.00002
   5        5S          0.00000   0.00000   0.00000   0.00681  -0.00001
   6        6S         -0.00000  -0.00000  -0.00000  -0.01913   0.00002
   7        7S          0.00000  -0.00000  -0.00000   0.00424  -0.00001
   8        8PX        -0.00123  -0.00177  -0.33524   0.00003   0.01206
   9        8PY         0.02489  -0.33433   0.00167   0.00000  -0.02043
  10        8PZ        -0.33433  -0.02488   0.00136   0.00005   0.02839
  11        9PX         0.00226   0.00324   0.61552  -0.00007  -0.02511
  12        9PY        -0.04570   0.61385  -0.00307  -0.00001   0.04248
  13        9PZ         0.61385   0.04569  -0.00249  -0.00011  -0.05919
  14       10PX         0.00009   0.00013   0.02442  -0.00000  -0.00031
  15       10PY        -0.00155   0.02428  -0.00012   0.00000   0.00113
  16       10PZ         0.02428   0.00155  -0.00010  -0.00000  -0.00072
  17       11PX        -0.00002  -0.00003  -0.00475  -0.00001  -0.00211
  18       11PY        -0.00029  -0.00499   0.00003  -0.00000   0.00214
  19       11PZ        -0.00498   0.00029   0.00002  -0.00001  -0.00621
  20       12PX         0.00175   0.00251   0.47575  -0.00004  -0.01423
  21       12PY        -0.03536   0.47450  -0.00237  -0.00000   0.02406
  22       12PZ         0.47450   0.03535  -0.00193  -0.00006  -0.03332
  23       13PX        -0.00000   0.00000   0.00007   0.00000   0.00098
  24       13PY        -0.00014   0.00003   0.00000  -0.00000  -0.00199
  25       13PZ         0.00003   0.00014   0.00000   0.00000   0.00202
  26       14D 0       -0.00000   0.00000  -0.00057   0.00011   0.00169
  27       14D+1       -0.00016   0.00055   0.00000   0.00001   0.00961
  28       14D-1        0.00000  -0.00000   0.00004  -0.00001  -0.00293
  29       14D+2        0.00001   0.00000  -0.00033  -0.00018   0.00093
  30       14D-2        0.00055   0.00016   0.00000  -0.00001  -0.00302
  31       15D 0       -0.00001   0.00001  -0.00260   0.00016  -0.00077
  32       15D+1       -0.00257   0.00428   0.00004  -0.00000  -0.00489
  33       15D-1        0.00004  -0.00003   0.00368   0.00000   0.00194
  34       15D+2        0.00005   0.00003  -0.00150  -0.00028  -0.00040
  35       15D-2        0.00428   0.00257   0.00000   0.00001   0.00359
  36       16D 0       -0.00000   0.00000  -0.00037  -0.00001   0.00241
  37       16D+1       -0.00052   0.00122   0.00001   0.00001   0.01406
  38       16D-1        0.00001  -0.00001   0.00124  -0.00001  -0.00465
  39       16D+2        0.00001   0.00001  -0.00021   0.00002   0.00131
  40       16D-2        0.00122   0.00052  -0.00000  -0.00002  -0.00587
  41       17D 0        0.00000  -0.00000   0.00058  -0.00002   0.00028
  42       17D+1        0.00039  -0.00046  -0.00000   0.00000   0.00215
  43       17D-1       -0.00000   0.00000  -0.00021  -0.00000  -0.00086
  44       17D+2       -0.00000  -0.00001   0.00034   0.00004   0.00015
  45       17D-2       -0.00046  -0.00039  -0.00000  -0.00000  -0.00045
  46       18F 0       -0.00056  -0.00094   0.00000  -0.00000  -0.00068
  47       18F+1       -0.00000  -0.00000   0.00087   0.00205   0.00054
  48       18F-1       -0.00107  -0.00011  -0.00000  -0.00002  -0.00177
  49       18F+2        0.00058  -0.00063  -0.00000  -0.00005   0.00118
  50       18F-2       -0.00001   0.00001  -0.00000  -0.00408  -0.00001
  51       18F+3       -0.00001   0.00002  -0.00112   0.00158  -0.00074
  52       18F-3       -0.00036   0.00080   0.00003  -0.00003  -0.00126
  53       19F 0        0.00112   0.00095  -0.00000   0.00000   0.00096
  54       19F+1        0.00000  -0.00000  -0.00076   0.00080  -0.00013
  55       19F-1        0.00070  -0.00075   0.00000  -0.00001   0.00088
  56       19F+2        0.00008   0.00015   0.00000  -0.00004   0.00003
  57       19F-2       -0.00000  -0.00000  -0.00000  -0.00293   0.00000
  58       19F+3        0.00002  -0.00002   0.00099   0.00062   0.00016
  59       19F-3        0.00066  -0.00084  -0.00002  -0.00001  -0.00080
  60       20G 0       -0.00000   0.00000  -0.00038  -0.00111  -0.00013
  61       20G+1        0.00102   0.00072   0.00000  -0.00001   0.00036
  62       20G-1       -0.00001  -0.00001   0.00061  -0.00154   0.00024
  63       20G+2       -0.00002   0.00001   0.00034   0.00079   0.00009
  64       20G-2       -0.00151   0.00060   0.00000  -0.00001  -0.00177
  65       20G+3        0.00026   0.00134  -0.00003  -0.00001  -0.00058
  66       20G-3       -0.00001  -0.00002  -0.00162  -0.00058  -0.00063
  67       20G+4       -0.00000   0.00002   0.00046  -0.00153   0.00014
  68       20G-4       -0.00020   0.00086  -0.00001   0.00004  -0.00056
  69 2   O  1S         -0.00983   0.00458  -0.00760  -0.10588  -0.17465
  70        2S          0.02047  -0.00940   0.01582   0.24122   0.39809
  71        3S          0.00560  -0.00262   0.00435   0.07363   0.12160
  72        4S          0.02026  -0.00812   0.01481   0.14291   0.24306
  73        5PX        -0.00378   0.00181  -0.00166   0.01287   0.02243
  74        5PY         0.00256   0.00006   0.00210  -0.00904  -0.01563
  75        5PZ        -0.00351   0.00226  -0.00364   0.01524   0.02649
  76        6PX        -0.00483   0.00239  -0.00205   0.01478   0.02501
  77        6PY         0.00317   0.00012   0.00265  -0.01025  -0.01783
  78        6PZ        -0.00432   0.00304  -0.00471   0.01734   0.02967
  79        7PX        -0.00450   0.00356  -0.00217  -0.00580  -0.00798
  80        7PY         0.00240   0.00024   0.00358   0.00533   0.00394
  81        7PZ        -0.00494   0.00291  -0.00425  -0.00786  -0.00949
  82        8D 0        0.00005  -0.00005   0.00008  -0.00054  -0.00086
  83        8D+1        0.00024  -0.00011   0.00018   0.00069   0.00120
  84        8D-1       -0.00017   0.00007  -0.00013  -0.00053  -0.00091
  85        8D+2        0.00005  -0.00002   0.00002  -0.00027  -0.00041
  86        8D-2       -0.00013   0.00004  -0.00008   0.00083   0.00135
  87        9D 0       -0.00024  -0.00077   0.00104  -0.00085  -0.00156
  88        9D+1        0.00244  -0.00152   0.00153   0.00408   0.00598
  89        9D-1       -0.00172   0.00013  -0.00173  -0.00286  -0.00470
  90        9D+2        0.00043  -0.00079  -0.00038  -0.00027  -0.00099
  91        9D-2       -0.00111  -0.00006  -0.00042   0.00135   0.00236
  92       10F 0        0.00011   0.00007  -0.00011  -0.00085  -0.00144
  93       10F+1       -0.00021   0.00022  -0.00028  -0.00010  -0.00006
  94       10F-1        0.00014  -0.00009   0.00024   0.00002  -0.00003
  95       10F+2       -0.00018   0.00018  -0.00001  -0.00023  -0.00038
  96       10F-2        0.00045  -0.00010   0.00031   0.00069   0.00102
  97       10F+3        0.00009   0.00004   0.00008   0.00033   0.00054
  98       10F-3        0.00032  -0.00007   0.00012   0.00107   0.00171
  99 3   H  1S          0.00167  -0.00031   0.00163   0.04263   0.07077
 100        2S         -0.00009  -0.00157  -0.00060   0.03706   0.06255
 101        3S          0.00077  -0.00093   0.00020   0.00183   0.00264
 102        4PX        -0.00021  -0.00004  -0.00023  -0.00577  -0.00964
 103        4PY         0.00014  -0.00004   0.00006  -0.00264  -0.00471
 104        4PZ        -0.00021   0.00006  -0.00027  -0.00300  -0.00489
 105        5PX         0.00046   0.00031   0.00061  -0.00593  -0.01063
 106        5PY        -0.00006  -0.00005  -0.00032  -0.00434  -0.00606
 107        5PZ         0.00058   0.00029   0.00055  -0.00212  -0.00458
 108        6D 0        0.00007  -0.00005   0.00004  -0.00039  -0.00071
 109        6D+1       -0.00003  -0.00011   0.00000   0.00096   0.00176
 110        6D-1       -0.00004  -0.00001   0.00007   0.00050   0.00083
 111        6D+2        0.00010  -0.00003  -0.00002   0.00076   0.00134
 112        6D-2       -0.00011   0.00009  -0.00007   0.00090   0.00161
 113 4   O  1S          0.00976  -0.00455  -0.00770  -0.10554   0.10538
 114        2S         -0.02033   0.00936   0.01603   0.24044  -0.24016
 115        3S         -0.00556   0.00261   0.00440   0.07340  -0.07337
 116        4S         -0.02013   0.00807   0.01502   0.14243  -0.14641
 117        5PX         0.00380  -0.00180  -0.00173   0.01297  -0.01379
 118        5PY         0.00249   0.00009  -0.00209   0.00885  -0.00919
 119        5PZ        -0.00348   0.00225   0.00368  -0.01516   0.01589
 120        6PX         0.00486  -0.00238  -0.00213   0.01489  -0.01539
 121        6PY         0.00308   0.00016  -0.00265   0.01003  -0.01055
 122        6PZ        -0.00428   0.00303   0.00476  -0.01724   0.01772
 123        7PX         0.00452  -0.00355  -0.00227  -0.00586   0.00466
 124        7PY         0.00231   0.00029  -0.00357  -0.00524   0.00258
 125        7PZ        -0.00490   0.00290   0.00431   0.00785  -0.00596
 126        8D 0       -0.00005   0.00005   0.00008  -0.00054   0.00054
 127        8D+1        0.00024  -0.00011  -0.00019  -0.00069   0.00073
 128        8D-1        0.00016  -0.00007  -0.00013  -0.00052   0.00054
 129        8D+2       -0.00005   0.00002   0.00003  -0.00029   0.00025
 130        8D-2       -0.00013   0.00003   0.00008  -0.00082   0.00081
 131        9D 0        0.00025   0.00077   0.00104  -0.00085   0.00077
 132        9D+1        0.00245  -0.00152  -0.00158  -0.00410   0.00359
 133        9D-1        0.00167  -0.00011  -0.00173  -0.00280   0.00287
 134        9D+2       -0.00047   0.00079  -0.00036  -0.00030   0.00087
 135        9D-2       -0.00109  -0.00008   0.00044  -0.00133   0.00141
 136       10F 0        0.00011   0.00007   0.00010   0.00084  -0.00089
 137       10F+1        0.00021  -0.00022  -0.00028  -0.00010   0.00005
 138       10F-1        0.00013  -0.00008  -0.00023  -0.00002  -0.00001
 139       10F+2       -0.00019   0.00018   0.00002   0.00025  -0.00024
 140       10F-2       -0.00044   0.00010   0.00031   0.00068  -0.00061
 141       10F+3       -0.00008  -0.00005   0.00007   0.00028  -0.00030
 142       10F-3        0.00033  -0.00007  -0.00013  -0.00108   0.00103
 143 5   H  1S         -0.00177   0.00121   0.00103   0.04241  -0.04261
 144        2S          0.00084  -0.00027   0.00069   0.03822  -0.03618
 145        3S         -0.00050   0.00032   0.00101   0.00188  -0.00183
 146        4PX         0.00023  -0.00007  -0.00009   0.00061  -0.00071
 147        4PY         0.00017  -0.00019  -0.00001  -0.00628   0.00627
 148        4PZ        -0.00020   0.00022   0.00017   0.00314  -0.00301
 149        5PX        -0.00034   0.00044   0.00005   0.00211  -0.00153
 150        5PY        -0.00067   0.00010   0.00010  -0.00733   0.00666
[...]
 285         V                 6.323435          9.315045
 286         V                 6.328912          9.248752
 287         V                 6.348017          9.418965
 288         V                 6.348038          9.419127
 289         V                 6.586442          9.790431
 290         V                 6.587685          9.715693
 291         V                 6.595657          9.803206
 292         V                 6.595674          9.803311
 293         V                 7.082028         10.600191
 294         V                 7.104569         10.623435
 295         V                 7.109362         10.629597
 296         V                 7.109410         10.629655
 297         V                11.944703         34.064390
 298         V                11.951987         34.117359
 299         V                11.969162         34.085422
 300         V                11.969247         34.085688
 Total kinetic energy from orbitals= 1.062954860200D+03
 Calling FoFJK, ICntrl=      2527 FMM=F ISym2X=0 I1Cent= 4 IOpClX= 0 NMat=1 NMatS=1 NMatT=0.
 ***** Axes restored to original set *****
 -------------------------------------------------------------------
 Center     Atomic                   Forces (Hartrees/Bohr)
 Number     Number              X              Y              Z
 -------------------------------------------------------------------
      1       21          -0.000000000   -0.000000000   -0.000000000
      2        8          -0.000000000   -0.000000000   -0.000000000
      3        1          -0.000011363   -0.000024697    0.000020629
      4        8          -0.000000000   -0.000000000   -0.000000000
      5        1           0.000007720    0.000003662    0.000015251
      6        8          -0.000000000   -0.000000000   -0.000000000
      7        1           0.000015267   -0.000025489   -0.000014751
      8        8          -0.000000000   -0.000000000   -0.000000000
      9        1          -0.000006237   -0.000006272    0.000002368
     10        1           0.000004908    0.000012435    0.000021633
     11        1          -0.000011864    0.000010213    0.000001316
     12        1           0.000006950   -0.000005160    0.000015063
     13        1          -0.000013784    0.000006825    0.000006152
 -------------------------------------------------------------------
 Cartesian Forces:  Max     0.000025489 RMS     0.000010283

 GradGradGradGradGradGradGradGradGradGradGradGradGradGradGradGradGradGrad
 Berny optimization.
 FormGI is forming the generalized inverse of G from B-inverse, IUseBI=4.
 Internal  Forces:  Max     0.000037087 RMS     0.000014622
 Search for a local minimum.
 Step number   1 out of a maximum of   69
 All quantities printed in internal units (Hartrees-Bohrs-Radians)
 Mixed Optimization -- En-DIIS/RFO-DIIS
 Second derivative matrix not updated -- first step.
 ITU=  0
     Eigenvalues ---    0.00769   0.00769   0.00769   0.00769   0.00770
     Eigenvalues ---    0.00770   0.00770   0.00770   0.16000   0.16000
     Eigenvalues ---    0.16000   0.16000   0.16000   0.16000   0.16000
     Eigenvalues ---    0.16000   0.49105   0.49107   0.49109   0.49110
     Eigenvalues ---    0.49123   0.49123   0.49124   0.491251000.00000
     Eigenvalues --- 1000.000001000.000001000.000001000.000001000.00000
     Eigenvalues --- 1000.000001000.000001000.000001000.000001000.00000
     Eigenvalues --- 1000.000001000.000001000.000001000.000001000.00000
     Eigenvalues --- 1000.000001000.000001000.000001000.000001000.00000
     Eigenvalues --- 1000.000001000.000001000.000001000.000001000.00000
     Eigenvalues --- 1000.000001000.000001000.000001000.000001000.00000
     Eigenvalues --- 1000.000001000.000001000.000001000.00000
 RFO step:  Lambda=-6.89663939D-08 EMin= 7.68603935D-03
 Linear search not attempted -- first point.
 Iteration  1 RMS(Cart)=  0.00023439 RMS(Int)=  0.00000008
 Iteration  2 RMS(Cart)=  0.00000007 RMS(Int)=  0.00000004
 Variable       Old X    -DE/DX   Delta X   Delta X   Delta X     New X
                                 (Linear)    (Quad)   (Total)
    X1       -0.00003   0.00000   0.00000   0.00000  -0.00000  -0.00003
    Y1       -0.00001  -0.00000   0.00000   0.00000   0.00000  -0.00001
    Z1        0.00005   0.00000   0.00000   0.00000   0.00000   0.00005
    X2        2.27967  -0.00002   0.00000   0.00000   0.00000   2.27967
    Y2        1.59538  -0.00003   0.00000   0.00000   0.00000   1.59538
    Z2       -2.82946   0.00003   0.00000   0.00000   0.00000  -2.82946
    X4        2.30251   0.00000   0.00000   0.00000   0.00000   2.30251
    Y4       -1.56478   0.00002   0.00000   0.00000  -0.00000  -1.56478
    Z4        2.82815   0.00002   0.00000   0.00000   0.00000   2.82815
    X6       -2.30956   0.00002   0.00000   0.00000  -0.00000  -2.30956
    Y6        2.81343  -0.00003   0.00000   0.00000   0.00000   2.81343
    Z6        1.58087  -0.00001   0.00000   0.00000   0.00000   1.58087
    X8       -2.27273  -0.00001   0.00000   0.00000   0.00000  -2.27273
    Y8       -2.84406   0.00001   0.00000   0.00000   0.00000  -2.84406
    Z8       -1.57937   0.00003   0.00000   0.00000   0.00000  -1.57937
    R1        1.87477  -0.00001   0.00000  -0.00002  -0.00002   1.87476
    R2        1.87461   0.00001   0.00000   0.00001   0.00001   1.87462
    R3        1.87460   0.00000   0.00000   0.00001   0.00001   1.87460
    R4        1.87475  -0.00000   0.00000  -0.00001  -0.00001   1.87474
    R5        1.87479  -0.00002   0.00000  -0.00003  -0.00003   1.87476
    R6        1.87459   0.00001   0.00000   0.00002   0.00002   1.87461
    R7        1.87461  -0.00000   0.00000  -0.00000  -0.00000   1.87461
    R8        1.87475  -0.00000   0.00000  -0.00000  -0.00000   1.87474
    A1        2.22218  -0.00003   0.00000  -0.00020  -0.00020   2.22199
    A2        2.21660   0.00000   0.00000   0.00001   0.00001   2.21661
    A3        1.84415   0.00003   0.00000   0.00019   0.00019   1.84434
    A4        2.21631   0.00002   0.00000   0.00016   0.00016   2.21648
    A5        2.22214  -0.00002   0.00000  -0.00012  -0.00012   2.22202
    A6        1.84446  -0.00000   0.00000  -0.00002  -0.00002   1.84444
    A7        2.22216  -0.00003   0.00000  -0.00018  -0.00018   2.22198
    A8        2.21659   0.00000   0.00000   0.00002   0.00002   2.21661
    A9        1.84421   0.00002   0.00000   0.00015   0.00015   1.84436
   A10        2.21621   0.00003   0.00000   0.00017   0.00017   2.21638
   A11        2.22238  -0.00004   0.00000  -0.00023  -0.00023   2.22215
   A12        1.84434   0.00001   0.00000   0.00007   0.00007   1.84441
    D1        0.76780   0.00001   0.00000   0.00015   0.00015   0.76795
    D2       -2.34637   0.00000   0.00000  -0.00003  -0.00003  -2.34640
    D3        2.86220  -0.00000   0.00000   0.00015   0.00015   2.86235
    D4       -0.25198  -0.00000   0.00000  -0.00003  -0.00003  -0.25201
    D5       -1.32659  -0.00000   0.00000   0.00015   0.00015  -1.32644
    D6        1.84242  -0.00000   0.00000  -0.00003  -0.00003   1.84239
    D7       -2.34610  -0.00001   0.00000  -0.00050  -0.00050  -2.34660
    D8        0.76675   0.00000   0.00000   0.00078   0.00078   0.76754
    D9        1.84269  -0.00001   0.00000  -0.00050  -0.00050   1.84219
   D10       -1.32764   0.00000   0.00000   0.00078   0.00078  -1.32686
   D11       -0.25171   0.00000   0.00000  -0.00050  -0.00050  -0.25221
   D12        2.86115   0.00001   0.00000   0.00078   0.00078   2.86193
   D13        1.32615   0.00000   0.00000   0.00021   0.00021   1.32636
   D14       -1.84210  -0.00000   0.00000  -0.00040  -0.00040  -1.84250
   D15       -2.86265   0.00000   0.00000   0.00021   0.00021  -2.86243
   D16        0.25230  -0.00000   0.00000  -0.00040  -0.00040   0.25190
   D17       -0.76825  -0.00000   0.00000   0.00021   0.00021  -0.76804
   D18        2.34669  -0.00001   0.00000  -0.00040  -0.00040   2.34630
   D19        0.25200   0.00000   0.00000   0.00010   0.00010   0.25211
   D20       -2.86187  -0.00000   0.00000  -0.00022  -0.00022  -2.86208
   D21       -1.84239  -0.00000   0.00000   0.00010   0.00010  -1.84229
   D22        1.32692  -0.00001   0.00000  -0.00022  -0.00022   1.32671
   D23        2.34640   0.00001   0.00000   0.00010   0.00010   2.34650
   D24       -0.76747   0.00000   0.00000  -0.00022  -0.00022  -0.76769
         Item               Value     Threshold  Converged?
 Maximum Force            0.000037     0.000450     YES
 RMS     Force            0.000013     0.000300     YES
 Maximum Displacement     0.000701     0.001800     YES
 RMS     Displacement     0.000234     0.001200     YES
 Predicted change in Energy=-3.448380D-08
 Optimization completed.
    -- Stationary point found.
                           ----------------------------
                           !   Optimized Parameters   !
                           ! (Angstroms and Degrees)  !
 --------------------------                            --------------------------
 ! Name  Definition              Value          Derivative Info.                !
 --------------------------------------------------------------------------------
 ! X1    R(1,-1)                 0.0            -DE/DX =    0.0                 !
 ! Y1    R(1,-2)                 0.0            -DE/DX =    0.0                 !
 ! Z1    R(1,-3)                 0.0            -DE/DX =    0.0                 !
 ! X2    R(2,-1)                 1.2064         -DE/DX =    0.0                 !
 ! Y2    R(2,-2)                 0.8442         -DE/DX =    0.0                 !
 ! Z2    R(2,-3)                -1.4973         -DE/DX =    0.0                 !
 ! X4    R(4,-1)                 1.2184         -DE/DX =    0.0                 !
 ! Y4    R(4,-2)                -0.828          -DE/DX =    0.0                 !
 ! Z4    R(4,-3)                 1.4966         -DE/DX =    0.0                 !
 ! X6    R(6,-1)                -1.2222         -DE/DX =    0.0                 !
 ! Y6    R(6,-2)                 1.4888         -DE/DX =    0.0                 !
 ! Z6    R(6,-3)                 0.8366         -DE/DX =    0.0                 !
 ! X8    R(8,-1)                -1.2027         -DE/DX =    0.0                 !
 ! Y8    R(8,-2)                -1.505          -DE/DX =    0.0                 !
 ! Z8    R(8,-3)                -0.8358         -DE/DX =    0.0                 !
 ! R1    R(2,3)                  0.9921         -DE/DX =    0.0                 !
 ! R2    R(2,13)                 0.992          -DE/DX =    0.0                 !
 ! R3    R(4,5)                  0.992          -DE/DX =    0.0                 !
 ! R4    R(4,11)                 0.9921         -DE/DX =    0.0                 !
 ! R5    R(6,7)                  0.9921         -DE/DX =    0.0                 !
 ! R6    R(6,12)                 0.992          -DE/DX =    0.0                 !
 ! R7    R(8,9)                  0.992          -DE/DX =    0.0                 !
 ! R8    R(8,10)                 0.9921         -DE/DX =    0.0                 !
 ! A1    A(1,2,3)              127.3217         -DE/DX =    0.0                 !
 ! A2    A(1,2,13)             127.0019         -DE/DX =    0.0                 !
 ! A3    A(3,2,13)             105.6622         -DE/DX =    0.0                 !
 ! A4    A(1,4,5)              126.9855         -DE/DX =    0.0                 !
 ! A5    A(1,4,11)             127.3194         -DE/DX =    0.0                 !
 ! A6    A(5,4,11)             105.6795         -DE/DX =    0.0                 !
 ! A7    A(1,6,7)              127.3202         -DE/DX =    0.0                 !
 ! A8    A(1,6,12)             127.001          -DE/DX =    0.0                 !
 ! A9    A(7,6,12)             105.6653         -DE/DX =    0.0                 !
 ! A10   A(1,8,9)              126.9795         -DE/DX =    0.0                 !
 ! A11   A(1,8,10)             127.3328         -DE/DX =    0.0                 !
 ! A12   A(9,8,10)             105.6732         -DE/DX =    0.0                 !
 ! D1    D(4,1,2,3)             43.9917         -DE/DX =    0.0                 !
 ! D2    D(4,1,2,13)          -134.4373         -DE/DX =    0.0                 !
 ! D3    D(6,1,2,3)            163.9917         -DE/DX =    0.0                 !
 ! D4    D(6,1,2,13)           -14.4372         -DE/DX =    0.0                 !
 ! D5    D(8,1,2,3)            -76.0083         -DE/DX =    0.0                 !
 ! D6    D(8,1,2,13)           105.5627         -DE/DX =    0.0                 !
 ! D7    D(2,1,4,5)           -134.4217         -DE/DX =    0.0                 !
 ! D8    D(2,1,4,11)            43.9317         -DE/DX =    0.0                 !
 ! D9    D(6,1,4,5)            105.5783         -DE/DX =    0.0                 !
 ! D10   D(6,1,4,11)           -76.0683         -DE/DX =    0.0                 !
 ! D11   D(8,1,4,5)            -14.4217         -DE/DX =    0.0                 !
 ! D12   D(8,1,4,11)           163.9317         -DE/DX =    0.0                 !
 ! D13   D(2,1,6,7)             75.9825         -DE/DX =    0.0                 !
 ! D14   D(2,1,6,12)          -105.5445         -DE/DX =    0.0                 !
 ! D15   D(4,1,6,7)           -164.0175         -DE/DX =    0.0                 !
 ! D16   D(4,1,6,12)            14.4555         -DE/DX =    0.0                 !
 ! D17   D(8,1,6,7)            -44.0175         -DE/DX =    0.0                 !
 ! D18   D(8,1,6,12)           134.4555         -DE/DX =    0.0                 !
 ! D19   D(2,1,8,9)             14.4388         -DE/DX =    0.0                 !
 ! D20   D(2,1,8,10)          -163.9729         -DE/DX =    0.0                 !
 ! D21   D(4,1,8,9)           -105.5612         -DE/DX =    0.0                 !
 ! D22   D(4,1,8,10)            76.0271         -DE/DX =    0.0                 !
 ! D23   D(6,1,8,9)            134.4388         -DE/DX =    0.0                 !
 ! D24   D(6,1,8,10)           -43.9729         -DE/DX =    0.0                 !
 --------------------------------------------------------------------------------
 GradGradGradGradGradGradGradGradGradGradGradGradGradGradGradGradGradGrad

                          Input orientation:                          
 ---------------------------------------------------------------------
 Center     Atomic      Atomic             Coordinates (Angstroms)
 Number     Number       Type             X           Y           Z
 ---------------------------------------------------------------------
      1         21           0       -0.000014   -0.000004    0.000025
      2          8           0        1.206351    0.844239   -1.497285
      3          1           0        2.019589    0.450957   -1.907419
      4          8           0        1.218438   -0.828046    1.496595
      5          1           0        1.116216   -1.716611    1.925614
      6          8           0       -1.222168    1.488805    0.836559
      7          1           0       -2.035535    1.893505    0.437921
      8          8           0       -1.202678   -1.505012   -0.835768
      9          1           0       -1.091575   -1.933376   -1.723591
     10          1           0       -2.010673   -1.920229   -0.437087
     11          1           0        2.027057   -0.424258    1.905626
     12          1           0       -1.116427    1.918986    1.724145
     13          1           0        1.092107    1.731225   -1.926552
 ---------------------------------------------------------------------
                    Distance matrix (angstroms):
                    1          2          3          4          5
     1  Sc   0.000000
     2  O    2.100000   0.000000
     3  H    2.814339   0.992087   0.000000
     4  O    2.100000   3.429286   3.723574   0.000000
     5  H    2.810801   4.275782   4.495172   0.991995   0.000000
     6  O    2.100000   3.429286   4.372131   3.429287   4.114459
     7  H    2.814333   3.918648   4.901591   4.372181   5.017938
     8  O    2.100000   3.429286   3.918833   3.429286   3.612101
     9  H    2.810745   3.612038   3.924051   4.114306   4.270600
    10  H    2.814442   4.372133   4.901776   3.919075   3.924442
    11  H    2.814307   3.723230   3.912207   0.992077   1.581205
    12  H    2.810958   4.114364   5.017764   3.612417   4.271164
    13  H    2.810975   0.992001   1.581036   4.275952   5.169849
                    6          7          8          9         10
     6  O    0.000000
     7  H    0.992099   0.000000
     8  O    3.429286   3.723688   0.000000
     9  H    4.275833   4.495354   0.992002   0.000000
    10  H    3.723631   3.912905   0.992073   1.581141   0.000000
    11  H    3.919206   4.902125   4.372008   5.017421   4.901989
    12  H    0.991991   1.581070   4.276021   5.169931   4.495572
    13  H    3.612398   3.924182   4.114496   4.270710   5.017855
                   11         12         13
    11  H    0.000000
    12  H    3.924947   0.000000
    13  H    4.495089   4.270885   0.000000
 Stoichiometry    H8O4Sc(3+)
 Framework group  C1[X(H8O4Sc)]
 Deg. of freedom    33
 Full point group                 C1      NOp   1
 Largest Abelian subgroup         C1      NOp   1
 Largest concise Abelian subgroup C1      NOp   1
                         Standard orientation:                         
 ---------------------------------------------------------------------
 Center     Atomic      Atomic             Coordinates (Angstroms)
 Number     Number       Type             X           Y           Z
 ---------------------------------------------------------------------
      1         21           0       -0.000014    0.000004   -0.000025
      2          8           0        1.206351   -0.844239    1.497285
      3          1           0        2.019589   -0.450958    1.907419
      4          8           0        1.218438    0.828046   -1.496595
      5          1           0        1.116217    1.716610   -1.925614
      6          8           0       -1.222169   -1.488805   -0.836559
      7          1           0       -2.035536   -1.893503   -0.437921
      8          8           0       -1.202677    1.505013    0.835768
      9          1           0       -1.091574    1.933377    1.723591
     10          1           0       -2.010672    1.920231    0.437087
     11          1           0        2.027057    0.424256   -1.905626
     12          1           0       -1.116428   -1.918985   -1.724145
     13          1           0        1.092106   -1.731226    1.926552
 ---------------------------------------------------------------------
 Rotational constants (GHZ):      2.1928668      2.1906620      2.1906152
 1\1\GINC-HECTOR-MACBOOKAIR\FOpt\RPBEPBE\CC-pVTZ/def2TZV\H8O4Sc1(3+)\HE
 CTOR\08-Aug-2024\0\\# opt pbepbe/cc-pvtz/def2tzv pop=full geom=connect
 ivity output=wfx\\Sc3_tetraedrico_cc-pvtz-def2-tzv_1\\3,1\Sc,-0.000014
 36,-0.00000378,0.00002542\O,1.206351,0.84423851,-1.49728491\H,2.019588
 76,0.45095681,-1.90741856\O,1.2184379,-0.82804619,1.49659501\H,1.11621
 562,-1.71661104,1.92561416\O,-1.22216821,1.48880523,0.83655899\H,-2.03
 553501,1.89350452,0.43792083\O,-1.20267768,-1.50501235,-0.8357681\H,-1
 .09157524,-1.93337601,-1.72359065\H,-2.01067294,-1.92022947,-0.4370868
 1\H,2.02705663,-0.42425757,1.90562607\H,-1.11642691,1.91898556,1.72414
 499\H,1.09210659,1.73122497,-1.92655189\\Version=EM64L-G09RevE.01\Stat
 e=1-A\HF=-1065.8293933\RMSD=6.021e-09\RMSF=1.028e-05\Dipole=0.0005503,
 0.0001299,-0.0009201\Quadrupole=0.2618756,-0.1270628,-0.1348128,0.0003
 557,-0.0000099,-0.000281\PG=C01 [X(H8O4Sc1)]\\@

 Writing a WFNX file to "Sc3_tetraedrico_cc-pvtz-def2-tzv_1.wfx"


 NOTHING WILL BE ATTEMPTED IF ALL POSSIBLE OBJECTIONS
 MUST FIRST BE OVERCOME.

                               -- THE GOLDEN PRINCIPLE,
                    PAUL DICKSON'S "THE OFFICIAL RULES"
 Job cpu time:       0 days  0 hours  1 minutes 48.1 seconds.
 File lengths (MBytes):  RWF=     49 Int=      0 D2E=      0 Chk=      7 Scr=      1
 Normal termination of Gaussian 09 at Thu Aug  8 12:44:54 2024.
