 Entering Gaussian System, Link 0=g09
 Input=Ni34.com
 Output=Ni34.log
 Initial command:
 /opt/SC/aplicaciones/g09-D.01/l1.exe "/tmpu/fercor_g/daram_a/Gau-38305.inp" -scrdir="/tmpu/fercor_g/daram_a/"
 Entering Link 1 = /opt/SC/aplicaciones/g09-D.01/l1.exe PID=     38306.
  
 Copyright (c) 1988,1990,1992,1993,1995,1998,2003,2009,2013,
            Gaussian, Inc.  All Rights Reserved.
  
 This is part of the Gaussian(R) 09 program.  It is based on
 the Gaussian(R) 03 system (copyright 2003, Gaussian, Inc.),
 the Gaussian(R) 98 system (copyright 1998, Gaussian, Inc.),
 the Gaussian(R) 94 system (copyright 1995, Gaussian, Inc.),
 the Gaussian 92(TM) system (copyright 1992, Gaussian, Inc.),
 the Gaussian 90(TM) system (copyright 1990, Gaussian, Inc.),
 the Gaussian 88(TM) system (copyright 1988, Gaussian, Inc.),
 the Gaussian 86(TM) system (copyright 1986, Carnegie Mellon
 University), and the Gaussian 82(TM) system (copyright 1983,
 Carnegie Mellon University). Gaussian is a federally registered
 trademark of Gaussian, Inc.
  
 This software contains proprietary and confidential information,
 including trade secrets, belonging to Gaussian, Inc.
  
 This software is provided under written license and may be
 used, copied, transmitted, or stored only in accord with that
 written license.
  
 The following legend is applicable only to US Government
 contracts under FAR:
  
                    RESTRICTED RIGHTS LEGEND
  
 Use, reproduction and disclosure by the US Government is
 subject to restrictions as set forth in subparagraphs (a)
 and (c) of the Commercial Computer Software - Restricted
 Rights clause in FAR 52.227-19.
  
 Gaussian, Inc.
 340 Quinnipiac St., Bldg. 40, Wallingford CT 06492
  
  
 ---------------------------------------------------------------
 Warning -- This program may not be used in any manner that
 competes with the business of Gaussian, Inc. or will provide
 assistance to any competitor of Gaussian, Inc.  The licensee
 of this program is prohibited from giving any competitor of
 Gaussian, Inc. access to this program.  By using this program,
 the user acknowledges that Gaussian, Inc. is engaged in the
 business of creating and licensing software in the field of
 computational chemistry and represents and warrants to the
 licensee that it is not a competitor of Gaussian, Inc. and that
 it will not use this program in any manner prohibited above.
 ---------------------------------------------------------------
  

 Cite this work as:
 Gaussian 09, Revision D.01,
 M. J. Frisch, G. W. Trucks, H. B. Schlegel, G. E. Scuseria, 
 M. A. Robb, J. R. Cheeseman, G. Scalmani, V. Barone, B. Mennucci, 
 G. A. Petersson, H. Nakatsuji, M. Caricato, X. Li, H. P. Hratchian, 
 A. F. Izmaylov, J. Bloino, G. Zheng, J. L. Sonnenberg, M. Hada, 
 M. Ehara, K. Toyota, R. Fukuda, J. Hasegawa, M. Ishida, T. Nakajima, 
 Y. Honda, O. Kitao, H. Nakai, T. Vreven, J. A. Montgomery, Jr., 
 J. E. Peralta, F. Ogliaro, M. Bearpark, J. J. Heyd, E. Brothers, 
 K. N. Kudin, V. N. Staroverov, T. Keith, R. Kobayashi, J. Normand, 
 K. Raghavachari, A. Rendell, J. C. Burant, S. S. Iyengar, J. Tomasi, 
 M. Cossi, N. Rega, J. M. Millam, M. Klene, J. E. Knox, J. B. Cross, 
 V. Bakken, C. Adamo, J. Jaramillo, R. Gomperts, R. E. Stratmann, 
 O. Yazyev, A. J. Austin, R. Cammi, C. Pomelli, J. W. Ochterski, 
 R. L. Martin, K. Morokuma, V. G. Zakrzewski, G. A. Voth, 
 P. Salvador, J. J. Dannenberg, S. Dapprich, A. D. Daniels, 
 O. Farkas, J. B. Foresman, J. V. Ortiz, J. Cioslowski, 
 and D. J. Fox, Gaussian, Inc., Wallingford CT, 2013.
 
 ******************************************
 Gaussian 09:  ES64L-G09RevD.01 24-Apr-2013
                29-Jun-2015 
 ******************************************
 %nprocshared=16
 Will use up to   16 processors via shared memory.
 %mem=32GB
 %chk=Ni34.chk
 -------------------------------------------------
 # opt 6-311++g(2d,2p) m062x output=wfnx scf=tight
 -------------------------------------------------
 1/14=-1,18=20,19=15,26=3,38=1/1,3;
 2/9=110,12=2,17=6,18=5,40=1/2;
 3/5=4,6=6,7=1212,11=2,16=1,25=1,30=1,71=1,74=-55/1,2,3;
 4//1;
 5/5=2,32=2,38=5/2;
 6/7=2,8=2,9=2,10=2,28=1/1;
 7//1,2,3,16;
 1/14=-1,18=20,19=15,26=3/3(2);
 2/9=110/2;
 99/6=200/99;
 2/9=110/2;
 3/5=4,6=6,7=1212,11=2,16=1,25=1,30=1,71=1,74=-55/1,2,3;
 4/5=5,16=3,69=1/1;
 5/5=2,32=2,38=5/2;
 7//1,2,3,16;
 1/14=-1,18=20,19=15,26=3/3(-5);
 2/9=110/2;
 6/7=2,8=2,9=2,10=2,19=2,28=1/1;
 99/6=200,9=1/99;
 -------------
 Ni[H2O]6 (3+)
 -------------
 Symbolic Z-matrix:
 Charge =  3 Multiplicity = 4
 Ni                    0.        0.        0. 
 O                    -1.97825  -0.08581  -0.03391 
 H                    -2.51562  -0.88971   0.07558 
 H                    -2.57952   0.67371  -0.12798 
 O                    -0.00956  -0.0247    1.98155 
 H                    -0.79254  -0.14209   2.5475 
 H                     0.76596   0.10701   2.55425 
 O                    -0.06606   1.97833   0.00912 
 H                    -0.18681   2.55129  -0.76821 
 H                    -0.01455   2.54163   0.80126 
 O                     1.97825   0.08581   0.03391 
 H                     2.51562   0.88971  -0.07558 
 H                     2.57952  -0.67371   0.12798 
 O                     0.00956   0.0247   -1.98155 
 H                     0.79254   0.14209  -2.5475 
 H                    -0.76596  -0.10701  -2.55425 
 O                     0.06606  -1.97833  -0.00912 
 H                     0.18681  -2.55129   0.76821 
 H                     0.01455  -2.54163  -0.80126 
 

 GradGradGradGradGradGradGradGradGradGradGradGradGradGradGradGradGradGrad
 Berny optimization.
 Initialization pass.
                           ----------------------------
                           !    Initial Parameters    !
                           ! (Angstroms and Degrees)  !
 --------------------------                            --------------------------
 ! Name  Definition              Value          Derivative Info.                !
 --------------------------------------------------------------------------------
 ! R1    R(1,2)                  1.9804         estimate D2E/DX2                !
 ! R2    R(1,5)                  1.9817         estimate D2E/DX2                !
 ! R3    R(1,8)                  1.9795         estimate D2E/DX2                !
 ! R4    R(1,11)                 1.9804         estimate D2E/DX2                !
 ! R5    R(1,14)                 1.9817         estimate D2E/DX2                !
 ! R6    R(1,17)                 1.9795         estimate D2E/DX2                !
 ! R7    R(2,3)                  0.9731         estimate D2E/DX2                !
 ! R8    R(2,4)                  0.9733         estimate D2E/DX2                !
 ! R9    R(5,6)                  0.9732         estimate D2E/DX2                !
 ! R10   R(5,7)                  0.973          estimate D2E/DX2                !
 ! R11   R(8,9)                  0.9732         estimate D2E/DX2                !
 ! R12   R(8,10)                 0.9734         estimate D2E/DX2                !
 ! R13   R(11,12)                0.9731         estimate D2E/DX2                !
 ! R14   R(11,13)                0.9733         estimate D2E/DX2                !
 ! R15   R(14,15)                0.9732         estimate D2E/DX2                !
 ! R16   R(14,16)                0.973          estimate D2E/DX2                !
 ! R17   R(17,18)                0.9732         estimate D2E/DX2                !
 ! R18   R(17,19)                0.9734         estimate D2E/DX2                !
 ! A1    A(2,1,5)               90.6742         estimate D2E/DX2                !
 ! A2    A(2,1,8)               90.5757         estimate D2E/DX2                !
 ! A3    A(2,1,14)              89.3258         estimate D2E/DX2                !
 ! A4    A(2,1,17)              89.4243         estimate D2E/DX2                !
 ! A5    A(5,1,8)               90.4406         estimate D2E/DX2                !
 ! A6    A(5,1,11)              89.3258         estimate D2E/DX2                !
 ! A7    A(5,1,17)              89.5594         estimate D2E/DX2                !
 ! A8    A(8,1,11)              89.4243         estimate D2E/DX2                !
 ! A9    A(8,1,14)              89.5594         estimate D2E/DX2                !
 ! A10   A(11,1,14)             90.6742         estimate D2E/DX2                !
 ! A11   A(11,1,17)             90.5757         estimate D2E/DX2                !
 ! A12   A(14,1,17)             90.4406         estimate D2E/DX2                !
 ! A13   A(1,2,3)              125.8359         estimate D2E/DX2                !
 ! A14   A(1,2,4)              125.7993         estimate D2E/DX2                !
 ! A15   A(3,2,4)              108.3251         estimate D2E/DX2                !
 ! A16   A(1,5,6)              125.9343         estimate D2E/DX2                !
 ! A17   A(1,5,7)              125.662          estimate D2E/DX2                !
 ! A18   A(6,5,7)              108.3778         estimate D2E/DX2                !
 ! A19   A(1,8,9)              126.0771         estimate D2E/DX2                !
 ! A20   A(1,8,10)             125.476          estimate D2E/DX2                !
 ! A21   A(9,8,10)             108.4139         estimate D2E/DX2                !
 ! A22   A(1,11,12)            125.8359         estimate D2E/DX2                !
 ! A23   A(1,11,13)            125.7993         estimate D2E/DX2                !
 ! A24   A(12,11,13)           108.3251         estimate D2E/DX2                !
 ! A25   A(1,14,15)            125.9343         estimate D2E/DX2                !
 ! A26   A(1,14,16)            125.662          estimate D2E/DX2                !
 ! A27   A(15,14,16)           108.3778         estimate D2E/DX2                !
 ! A28   A(1,17,18)            126.0771         estimate D2E/DX2                !
 ! A29   A(1,17,19)            125.476          estimate D2E/DX2                !
 ! A30   A(18,17,19)           108.4139         estimate D2E/DX2                !
 ! A31   L(2,1,11,5,-1)        180.0            estimate D2E/DX2                !
 ! A32   L(5,1,14,2,-1)        180.0            estimate D2E/DX2                !
 ! A33   L(8,1,17,2,-1)        180.0            estimate D2E/DX2                !
 ! A34   L(2,1,11,5,-2)        180.0            estimate D2E/DX2                !
 ! A35   L(5,1,14,2,-2)        180.0            estimate D2E/DX2                !
 ! A36   L(8,1,17,2,-2)        180.0            estimate D2E/DX2                !
 ! D1    D(5,1,2,3)            -80.603          estimate D2E/DX2                !
 ! D2    D(5,1,2,4)             96.8339         estimate D2E/DX2                !
 ! D3    D(8,1,2,3)           -171.0504         estimate D2E/DX2                !
 ! D4    D(8,1,2,4)              6.3864         estimate D2E/DX2                !
 ! D5    D(14,1,2,3)            99.397          estimate D2E/DX2                !
 ! D6    D(14,1,2,4)           -83.1661         estimate D2E/DX2                !
 ! D7    D(17,1,2,3)             8.9496         estimate D2E/DX2                !
 ! D8    D(17,1,2,4)          -173.6136         estimate D2E/DX2                !
 ! D9    D(3,2,11,12)          180.0            estimate D2E/DX2                !
 ! D10   D(3,2,11,13)            2.5632         estimate D2E/DX2                !
 ! D11   D(4,2,11,12)           -2.5632         estimate D2E/DX2                !
 ! D12   D(4,2,11,13)          180.0            estimate D2E/DX2                !
 ! D13   D(2,1,5,6)              5.5528         estimate D2E/DX2                !
 ! D14   D(2,1,5,7)           -172.3806         estimate D2E/DX2                !
 ! D15   D(8,1,5,6)             96.1337         estimate D2E/DX2                !
 ! D16   D(8,1,5,7)            -81.7997         estimate D2E/DX2                !
 ! D17   D(11,1,5,6)          -174.4472         estimate D2E/DX2                !
 ! D18   D(11,1,5,7)             7.6194         estimate D2E/DX2                !
 ! D19   D(17,1,5,6)           -83.8663         estimate D2E/DX2                !
 ! D20   D(17,1,5,7)            98.2003         estimate D2E/DX2                !
 ! D21   D(6,5,14,15)          180.0            estimate D2E/DX2                !
 ! D22   D(6,5,14,16)           -2.0666         estimate D2E/DX2                !
 ! D23   D(7,5,14,15)            2.0666         estimate D2E/DX2                !
 ! D24   D(7,5,14,16)          180.0            estimate D2E/DX2                !
 ! D25   D(2,1,8,9)            -81.6026         estimate D2E/DX2                !
 ! D26   D(2,1,8,10)            96.0656         estimate D2E/DX2                !
 ! D27   D(5,1,8,9)           -172.2813         estimate D2E/DX2                !
 ! D28   D(5,1,8,10)             5.3869         estimate D2E/DX2                !
 ! D29   D(11,1,8,9)            98.3974         estimate D2E/DX2                !
 ! D30   D(11,1,8,10)          -83.9344         estimate D2E/DX2                !
 ! D31   D(14,1,8,9)             7.7187         estimate D2E/DX2                !
 ! D32   D(14,1,8,10)         -174.6131         estimate D2E/DX2                !
 ! D33   D(9,8,17,18)          180.0            estimate D2E/DX2                !
 ! D34   D(9,8,17,19)            2.3318         estimate D2E/DX2                !
 ! D35   D(10,8,17,18)          -2.3318         estimate D2E/DX2                !
 ! D36   D(10,8,17,19)         180.0            estimate D2E/DX2                !
 ! D37   D(5,1,11,12)          -99.397          estimate D2E/DX2                !
 ! D38   D(5,1,11,13)           83.1661         estimate D2E/DX2                !
 ! D39   D(8,1,11,12)           -8.9496         estimate D2E/DX2                !
 ! D40   D(8,1,11,13)          173.6136         estimate D2E/DX2                !
 ! D41   D(14,1,11,12)          80.603          estimate D2E/DX2                !
 ! D42   D(14,1,11,13)         -96.8339         estimate D2E/DX2                !
 ! D43   D(17,1,11,12)         171.0504         estimate D2E/DX2                !
 ! D44   D(17,1,11,13)          -6.3864         estimate D2E/DX2                !
 ! D45   D(2,1,14,15)          174.4472         estimate D2E/DX2                !
 ! D46   D(2,1,14,16)           -7.6194         estimate D2E/DX2                !
 ! D47   D(8,1,14,15)           83.8663         estimate D2E/DX2                !
 ! D48   D(8,1,14,16)          -98.2003         estimate D2E/DX2                !
 ! D49   D(11,1,14,15)          -5.5528         estimate D2E/DX2                !
 ! D50   D(11,1,14,16)         172.3806         estimate D2E/DX2                !
 ! D51   D(17,1,14,15)         -96.1337         estimate D2E/DX2                !
 ! D52   D(17,1,14,16)          81.7997         estimate D2E/DX2                !
 ! D53   D(2,1,17,18)          -98.3974         estimate D2E/DX2                !
 ! D54   D(2,1,17,19)           83.9344         estimate D2E/DX2                !
 ! D55   D(5,1,17,18)           -7.7187         estimate D2E/DX2                !
 ! D56   D(5,1,17,19)          174.6131         estimate D2E/DX2                !
 ! D57   D(11,1,17,18)          81.6026         estimate D2E/DX2                !
 ! D58   D(11,1,17,19)         -96.0656         estimate D2E/DX2                !
 ! D59   D(14,1,17,18)         172.2813         estimate D2E/DX2                !
 ! D60   D(14,1,17,19)          -5.3869         estimate D2E/DX2                !
 --------------------------------------------------------------------------------
 Trust Radius=3.00D-01 FncErr=1.00D-07 GrdErr=1.00D-06
 Number of steps in this run=    114 maximum allowed number of steps=    114.
 GradGradGradGradGradGradGradGradGradGradGradGradGradGradGradGradGradGrad

                          Input orientation:                          
 ---------------------------------------------------------------------
 Center     Atomic      Atomic             Coordinates (Angstroms)
 Number     Number       Type             X           Y           Z
 ---------------------------------------------------------------------
      1         28           0        0.000000    0.000000    0.000000
      2          8           0       -1.978254   -0.085813   -0.033914
      3          1           0       -2.515616   -0.889707    0.075584
      4          1           0       -2.579517    0.673714   -0.127978
      5          8           0       -0.009556   -0.024699    1.981548
      6          1           0       -0.792539   -0.142090    2.547495
      7          1           0        0.765961    0.107014    2.554253
      8          8           0       -0.066062    1.978330    0.009115
      9          1           0       -0.186811    2.551288   -0.768205
     10          1           0       -0.014549    2.541628    0.801258
     11          8           0        1.978254    0.085813    0.033914
     12          1           0        2.515616    0.889707   -0.075584
     13          1           0        2.579517   -0.673714    0.127978
     14          8           0        0.009556    0.024699   -1.981548
     15          1           0        0.792539    0.142090   -2.547495
     16          1           0       -0.765961   -0.107014   -2.554253
     17          8           0        0.066062   -1.978330   -0.009115
     18          1           0        0.186811   -2.551288    0.768205
     19          1           0        0.014549   -2.541628   -0.801258
 ---------------------------------------------------------------------
                    Distance matrix (angstroms):
                    1          2          3          4          5
     1  Ni   0.000000
     2  O    1.980405   0.000000
     3  H    2.669385   0.973135   0.000000
     4  H    2.669115   0.973266   1.577911   0.000000
     5  O    1.981725   2.818083   3.265161   3.397437   0.000000
     6  H    2.671711   2.841261   3.104557   3.319184   0.973211
     7  H    2.668774   3.777103   4.231549   4.325244   0.973019
     8  O    1.979454   2.814075   3.772316   2.835185   2.811727
     9  H    2.670975   3.271506   4.239783   3.108089   3.772038
    10  H    2.664977   3.384834   4.307668   3.306304   2.824737
    11  O    1.980405   3.960810   4.598722   4.598382   2.785118
    12  H    2.669385   4.598722   5.338770   5.099979   3.382961
    13  H    2.669115   4.598382   5.099979   5.338231   3.249653
    14  O    1.981725   2.785118   3.382961   3.249653   3.963450
    15  H    2.671711   3.747976   4.346152   4.184191   4.602544
    16  H    2.668774   2.796822   3.254219   3.128152   4.599175
    17  O    1.979454   2.785940   2.803094   3.747873   2.790185
    18  H    2.670975   3.377790   3.247105   4.342390   2.809700
    19  H    2.664977   3.254398   3.146336   4.185798   3.752269
                    6          7          8          9         10
     6  H    0.000000
     7  H    1.578297   0.000000
     8  O    3.386344   3.266774   0.000000
     9  H    4.314517   4.233317   0.973185   0.000000
    10  H    3.294990   3.099924   0.973370   1.578918   0.000000
    11  O    3.747976   2.796822   2.785940   3.377790   3.254398
    12  H    4.346152   3.254219   2.803094   3.247105   3.146336
    13  H    4.184191   3.128152   3.747873   4.342390   4.185798
    14  O    4.602544   4.599175   2.790185   2.809700   3.752269
    15  H    5.343422   5.101938   3.262703   3.151069   4.198014
    16  H    5.101938   5.337549   3.377777   3.254528   4.340436
    17  O    3.262703   3.377777   3.958908   4.599739   4.592736
    18  H    3.151069   3.254528   4.599739   5.341950   5.097002
    19  H    4.198014   4.340436   4.592736   5.097002   5.329953
                   11         12         13         14         15
    11  O    0.000000
    12  H    0.973135   0.000000
    13  H    0.973266   1.577911   0.000000
    14  O    2.818083   3.265161   3.397437   0.000000
    15  H    2.841261   3.104557   3.319184   0.973211   0.000000
    16  H    3.777103   4.231549   4.325244   0.973019   1.578297
    17  O    2.814075   3.772316   2.835185   2.811727   3.386344
    18  H    3.271506   4.239783   3.108089   3.772038   4.314517
    19  H    3.384834   4.307668   3.306304   2.824737   3.294990
                   16         17         18         19
    16  H    0.000000
    17  O    3.266774   0.000000
    18  H    4.233317   0.973185   0.000000
    19  H    3.099924   0.973370   1.578918   0.000000
 Stoichiometry    H12NiO6(3+,4)
 Framework group  CI[O(Ni),X(H12O6)]
 Deg. of freedom    24
 Full point group                 CI      NOp   2
 Largest Abelian subgroup         CI      NOp   2
 Largest concise Abelian subgroup CI      NOp   2
                         Standard orientation:                         
 ---------------------------------------------------------------------
 Center     Atomic      Atomic             Coordinates (Angstroms)
 Number     Number       Type             X           Y           Z
 ---------------------------------------------------------------------
      1         28           0        0.000000    0.000000    0.000000
      2          8           0       -1.978254   -0.085813   -0.033914
      3          1           0       -2.515616   -0.889707    0.075584
      4          1           0       -2.579517    0.673714   -0.127978
      5          8           0       -0.009556   -0.024699    1.981548
      6          1           0       -0.792539   -0.142090    2.547495
      7          1           0        0.765961    0.107014    2.554253
      8          8           0       -0.066062    1.978330    0.009115
      9          1           0       -0.186811    2.551288   -0.768205
     10          1           0       -0.014549    2.541628    0.801258
     11          8           0        1.978254    0.085813    0.033914
     12          1           0        2.515616    0.889707   -0.075584
     13          1           0        2.579517   -0.673714    0.127978
     14          8           0        0.009556    0.024699   -1.981548
     15          1           0        0.792539    0.142090   -2.547495
     16          1           0       -0.765961   -0.107014   -2.554253
     17          8           0        0.066062   -1.978330   -0.009115
     18          1           0        0.186811   -2.551288    0.768205
     19          1           0        0.014549   -2.541628   -0.801258
 ---------------------------------------------------------------------
 Rotational constants (GHZ):      1.6494008      1.6452568      1.6217400
 Standard basis: 6-311++G(2d,2p) (5D, 7F)
 There are   181 symmetry adapted cartesian basis functions of AG  symmetry.
 There are   188 symmetry adapted cartesian basis functions of AU  symmetry.
 There are   171 symmetry adapted basis functions of AG  symmetry.
 There are   176 symmetry adapted basis functions of AU  symmetry.
   347 basis functions,   500 primitive gaussians,   369 cartesian basis functions
    44 alpha electrons       41 beta electrons
       nuclear repulsion energy       732.0087420781 Hartrees.
 NAtoms=   19 NActive=   19 NUniq=   10 SFac= 3.61D+00 NAtFMM=   60 NAOKFM=F Big=F
 Integral buffers will be    131072 words long.
 Raffenetti 2 integral format.
 Two-electron integral symmetry is turned on.
 One-electron integrals computed using PRISM.
 NBasis=   347 RedAO= T EigKep=  2.92D-04  NBF=   171   176
 NBsUse=   347 1.00D-06 EigRej= -1.00D+00 NBFU=   171   176
 ExpMin= 1.39D-02 ExpMax= 2.85D+05 ExpMxC= 9.63D+03 IAcc=3 IRadAn=         5 AccDes= 0.00D+00
 Harris functional with IExCor= 1009 and IRadAn=       5 diagonalized for initial guess.
 HarFok:  IExCor= 1009 AccDes= 0.00D+00 IRadAn=         5 IDoV= 1 UseB2=F ITyADJ=14
 ICtDFT=  3500011 ScaDFX=  1.000000  1.000000  1.000000  1.000000
 FoFCou: FMM=F IPFlag=           0 FMFlag=      100000 FMFlg1=           0
         NFxFlg=           0 DoJE=T BraDBF=F KetDBF=T FulRan=T
         wScrn=  0.000000 ICntrl=     500 IOpCl=  0 I1Cent=   200000004 NGrid=           0
         NMat0=    1 NMatS0=      1 NMatT0=    0 NMatD0=    1 NMtDS0=    0 NMtDT0=    0
 Petite list used in FoFCou.
 Initial guess orbital symmetries:
 Alpha Orbitals:
       Occupied  (AG) (AG) (AU) (AU) (AU) (AG) (AU) (AG) (AU) (AG)
                 (AU) (AG) (AU) (AU) (AU) (AG) (AU) (AU) (AU) (AG)
                 (AG) (AG) (AG) (AU) (AU) (AU) (AG) (AG) (AG) (AG)
                 (AU) (AU) (AU) (AG) (AG) (AU) (AG) (AU) (AU) (AG)
                 (AG) (AG) (AG) (AG)
       Virtual   (AG) (AU) (AU) (AU) (AG) (AG) (AG) (AG) (AG) (AU)
                 (AU) (AU) (AG) (AU) (AU) (AU) (AG) (AG) (AG) (AG)
                 (AG) (AG) (AU) (AU) (AU) (AG) (AU) (AU) (AU) (AG)
                 (AU) (AG) (AG) (AU) (AU) (AG) (AG) (AG) (AU) (AU)
                 (AU) (AG) (AG) (AG) (AU) (AU) (AU) (AG) (AU) (AG)
                 (AG) (AG) (AU) (AU) (AU) (AG) (AG) (AG) (AU) (AU)
                 (AG) (AG) (AU) (AU) (AU) (AG) (AG) (AG) (AU) (AU)
                 (AU) (AG) (AU) (AU) (AG) (AG) (AU) (AG) (AG) (AG)
                 (AU) (AU) (AU) (AG) (AG) (AG) (AU) (AG) (AG) (AG)
                 (AU) (AU) (AU) (AU) (AU) (AG) (AU) (AU) (AU) (AG)
                 (AG) (AU) (AG) (AG) (AU) (AU) (AG) (AG) (AG) (AG)
                 (AG) (AG) (AG) (AU) (AU) (AU) (AG) (AG) (AU) (AG)
                 (AG) (AU) (AU) (AG) (AU) (AU) (AU) (AG) (AU) (AU)
                 (AU) (AU) (AG) (AG) (AG) (AG) (AU) (AG) (AU) (AG)
                 (AU) (AU) (AU) (AG) (AG) (AG) (AG) (AG) (AG) (AG)
                 (AU) (AU) (AG) (AU) (AU) (AU) (AU) (AU) (AG) (AG)
                 (AG) (AU) (AU) (AU) (AU) (AU) (AU) (AG) (AU) (AU)
                 (AU) (AG) (AG) (AG) (AG) (AG) (AG) (AU) (AU) (AU)
                 (AG) (AG) (AG) (AU) (AU) (AU) (AG) (AG) (AU) (AU)
                 (AU) (AG) (AU) (AU) (AU) (AG) (AG) (AG) (AU) (AG)
                 (AG) (AU) (AU) (AU) (AG) (AU) (AU) (AG) (AG) (AG)
                 (AG) (AG) (AG) (AU) (AU) (AU) (AG) (AG) (AU) (AU)
                 (AU) (AG) (AU) (AU) (AU) (AG) (AG) (AG) (AG) (AG)
                 (AG) (AU) (AU) (AU) (AG) (AU) (AU) (AU) (AG) (AG)
                 (AG) (AG) (AG) (AU) (AU) (AU) (AG) (AG) (AG) (AU)
                 (AU) (AU) (AU) (AU) (AU) (AG) (AG) (AG) (AG) (AG)
                 (AG) (AG) (AG) (AU) (AU) (AU) (AG) (AU) (AU) (AU)
                 (AG) (AG) (AG) (AU) (AU) (AU) (AU) (AG) (AG) (AG)
                 (AU) (AU) (AU) (AG) (AG) (AU) (AU) (AU) (AU) (AU)
                 (AU) (AG) (AU) (AU) (AU) (AU) (AU) (AU) (AG) (AG)
                 (AG) (AG) (AG)
 Beta  Orbitals:
       Occupied  (AG) (AG) (AU) (AU) (AU) (AG) (AU) (AG) (AU) (AG)
                 (AU) (AG) (AU) (AU) (AU) (AG) (AU) (AU) (AU) (AG)
                 (AG) (AG) (AG) (AU) (AU) (AU) (AG) (AG) (AG) (AG)
                 (AU) (AU) (AU) (AG) (AG) (AU) (AG) (AU) (AU) (AG)
                 (AG)
       Virtual   (AG) (AG) (AG) (AG) (AU) (AU) (AU) (AG) (AG) (AG)
                 (AG) (AG) (AU) (AU) (AU) (AG) (AU) (AU) (AU) (AG)
                 (AG) (AG) (AG) (AG) (AG) (AU) (AU) (AU) (AG) (AU)
                 (AU) (AU) (AG) (AU) (AG) (AG) (AU) (AU) (AG) (AG)
                 (AG) (AU) (AU) (AU) (AG) (AG) (AG) (AU) (AU) (AU)
                 (AG) (AU) (AG) (AG) (AG) (AU) (AU) (AU) (AG) (AG)
                 (AG) (AU) (AU) (AG) (AG) (AU) (AU) (AU) (AG) (AG)
                 (AG) (AU) (AU) (AU) (AG) (AU) (AU) (AG) (AG) (AU)
                 (AG) (AG) (AG) (AU) (AU) (AU) (AG) (AG) (AG) (AU)
                 (AG) (AG) (AG) (AU) (AU) (AU) (AU) (AU) (AG) (AU)
                 (AU) (AU) (AG) (AG) (AU) (AG) (AG) (AU) (AU) (AG)
                 (AG) (AG) (AG) (AG) (AG) (AG) (AU) (AU) (AU) (AG)
                 (AG) (AU) (AG) (AG) (AU) (AU) (AG) (AU) (AU) (AU)
                 (AG) (AU) (AU) (AU) (AU) (AG) (AG) (AG) (AG) (AU)
                 (AG) (AU) (AG) (AU) (AU) (AU) (AG) (AG) (AG) (AG)
                 (AG) (AG) (AG) (AU) (AU) (AG) (AU) (AU) (AU) (AU)
                 (AU) (AG) (AG) (AG) (AU) (AU) (AU) (AU) (AU) (AU)
                 (AG) (AU) (AU) (AU) (AG) (AG) (AG) (AG) (AG) (AG)
                 (AU) (AU) (AU) (AG) (AG) (AG) (AU) (AU) (AU) (AG)
                 (AG) (AU) (AU) (AU) (AG) (AU) (AU) (AU) (AG) (AG)
                 (AG) (AU) (AG) (AG) (AU) (AU) (AU) (AG) (AU) (AU)
                 (AG) (AG) (AG) (AG) (AG) (AG) (AU) (AU) (AU) (AG)
                 (AG) (AU) (AU) (AU) (AG) (AU) (AU) (AU) (AG) (AG)
                 (AG) (AG) (AG) (AG) (AU) (AU) (AU) (AG) (AU) (AU)
                 (AU) (AG) (AG) (AG) (AG) (AG) (AU) (AU) (AU) (AG)
                 (AG) (AG) (AU) (AU) (AU) (AU) (AU) (AU) (AG) (AG)
                 (AG) (AG) (AG) (AG) (AG) (AG) (AU) (AU) (AU) (AG)
                 (AU) (AU) (AU) (AG) (AG) (AG) (AU) (AU) (AU) (AU)
                 (AG) (AG) (AG) (AU) (AU) (AU) (AG) (AG) (AU) (AU)
                 (AU) (AU) (AU) (AU) (AG) (AU) (AU) (AU) (AU) (AU)
                 (AU) (AG) (AG) (AG) (AG) (AG)
 The electronic state of the initial guess is 4-AG.
 Initial guess <Sx>= 0.0000 <Sy>= 0.0000 <Sz>= 1.5000 <S**2>= 3.7500 S= 1.5000
 Keep R1 and R2 ints in memory in symmetry-blocked form, NReq=2734803760.
 Requested convergence on RMS density matrix=1.00D-08 within 128 cycles.
 Requested convergence on MAX density matrix=1.00D-06.
 Requested convergence on             energy=1.00D-06.
 No special actions if energy rises.
 EnCoef did   100 forward-backward iterations
 SCF Done:  E(UM062X) =  -1965.63499194     A.U. after   34 cycles
            NFock= 34  Conv=0.12D-08     -V/T= 2.0015
 <Sx>= 0.0000 <Sy>= 0.0000 <Sz>= 1.5000 <S**2>= 3.7581 S= 1.5020
 <L.S>= 0.000000000000E+00
 Annihilation of the first spin contaminant:
 S**2 before annihilation     3.7581,   after     3.7500

 **********************************************************************

            Population analysis using the SCF density.

 **********************************************************************

 Orbital symmetries:
 Alpha Orbitals:
       Occupied  (AG) (AG) (AU) (AU) (AU) (AG) (AU) (AG) (AU) (AG)
                 (AU) (AG) (AU) (AU) (AU) (AG) (AU) (AU) (AU) (AG)
                 (AG) (AG) (AG) (AG) (AG) (AG) (AU) (AU) (AU) (AG)
                 (AG) (AG) (AG) (AU) (AU) (AU) (AG) (AG) (AG) (AU)
                 (AU) (AU) (AG) (AG)
       Virtual   (AG) (AU) (AU) (AU) (AG) (AG) (AG) (AG) (AG) (AU)
                 (AU) (AU) (AG) (AU) (AU) (AU) (AG) (AG) (AG) (AG)
                 (AU) (AU) (AU) (AG) (AG) (AU) (AU) (AU) (AG) (AU)
                 (AG) (AG) (AG) (AU) (AU) (AG) (AG) (AG) (AG) (AG)
                 (AU) (AU) (AU) (AG) (AU) (AU) (AU) (AU) (AG) (AG)
                 (AG) (AG) (AU) (AU) (AU) (AG) (AG) (AG) (AU) (AU)
                 (AG) (AG) (AU) (AU) (AU) (AG) (AG) (AG) (AU) (AU)
                 (AU) (AG) (AU) (AU) (AG) (AG) (AU) (AG) (AG) (AG)
                 (AU) (AU) (AU) (AG) (AG) (AG) (AG) (AG) (AU) (AG)
                 (AU) (AU) (AU) (AU) (AU) (AG) (AU) (AG) (AU) (AG)
                 (AU) (AU) (AU) (AU) (AG) (AG) (AG) (AG) (AG) (AG)
                 (AG) (AG) (AG) (AU) (AU) (AU) (AG) (AG) (AU) (AG)
                 (AG) (AU) (AU) (AG) (AU) (AU) (AU) (AG) (AU) (AU)
                 (AG) (AG) (AG) (AU) (AU) (AG) (AG) (AU) (AU) (AU)
                 (AG) (AU) (AU) (AG) (AG) (AG) (AG) (AG) (AU) (AU)
                 (AU) (AU) (AG) (AG) (AG) (AU) (AU) (AU) (AG) (AU)
                 (AG) (AG) (AU) (AU) (AU) (AU) (AU) (AU) (AU) (AU)
                 (AG) (AG) (AG) (AG) (AG) (AG) (AG) (AU) (AU) (AU)
                 (AG) (AU) (AU) (AU) (AG) (AG) (AG) (AG) (AU) (AU)
                 (AU) (AU) (AG) (AU) (AU) (AG) (AG) (AU) (AG) (AG)
                 (AG) (AU) (AU) (AU) (AG) (AU) (AU) (AG) (AG) (AG)
                 (AG) (AG) (AG) (AU) (AU) (AU) (AG) (AG) (AU) (AU)
                 (AU) (AU) (AG) (AU) (AU) (AG) (AG) (AG) (AG) (AG)
                 (AG) (AU) (AU) (AU) (AG) (AU) (AU) (AU) (AG) (AG)
                 (AG) (AG) (AG) (AU) (AU) (AU) (AG) (AG) (AG) (AG)
                 (AG) (AU) (AU) (AU) (AU) (AU) (AG) (AU) (AG) (AG)
                 (AG) (AG) (AU) (AU) (AU) (AG) (AU) (AU) (AU) (AU)
                 (AG) (AU) (AU) (AU) (AG) (AG) (AG) (AG) (AG) (AG)
                 (AU) (AU) (AU) (AG) (AG) (AU) (AU) (AU) (AU) (AU)
                 (AU) (AG) (AU) (AU) (AU) (AU) (AU) (AU) (AG) (AG)
                 (AG) (AG) (AG)
 Beta  Orbitals:
       Occupied  (AG) (AG) (AU) (AU) (AU) (AG) (AU) (AG) (AU) (AG)
                 (AU) (AG) (AU) (AU) (AU) (AG) (AU) (AU) (AU) (AG)
                 (AG) (AG) (AG) (AU) (AU) (AU) (AG) (AG) (AG) (AG)
                 (AG) (AG) (AU) (AU) (AU) (AG) (AU) (AU) (AU) (AG)
                 (AG)
       Virtual   (AG) (AG) (AG) (AG) (AU) (AU) (AU) (AG) (AG) (AG)
                 (AG) (AG) (AU) (AU) (AU) (AG) (AU) (AU) (AU) (AG)
                 (AG) (AG) (AG) (AU) (AU) (AG) (AG) (AU) (AU) (AU)
                 (AU) (AG) (AU) (AG) (AG) (AG) (AU) (AU) (AG) (AG)
                 (AG) (AG) (AG) (AU) (AU) (AU) (AG) (AU) (AU) (AU)
                 (AU) (AG) (AG) (AG) (AG) (AU) (AU) (AU) (AG) (AG)
                 (AG) (AU) (AU) (AG) (AG) (AU) (AU) (AU) (AG) (AG)
                 (AG) (AU) (AU) (AU) (AG) (AU) (AU) (AG) (AG) (AU)
                 (AG) (AG) (AG) (AU) (AU) (AU) (AG) (AG) (AG) (AG)
                 (AU) (AG) (AU) (AG) (AU) (AU) (AU) (AU) (AG) (AU)
                 (AG) (AU) (AG) (AU) (AU) (AU) (AU) (AG) (AG) (AG)
                 (AG) (AG) (AG) (AG) (AG) (AG) (AU) (AU) (AU) (AG)
                 (AG) (AU) (AG) (AG) (AU) (AU) (AG) (AU) (AU) (AU)
                 (AG) (AU) (AU) (AG) (AG) (AU) (AU) (AG) (AG) (AG)
                 (AU) (AU) (AU) (AG) (AU) (AU) (AG) (AG) (AG) (AG)
                 (AG) (AU) (AU) (AU) (AU) (AG) (AG) (AG) (AU) (AU)
                 (AU) (AG) (AU) (AG) (AG) (AU) (AU) (AU) (AU) (AU)
                 (AU) (AU) (AU) (AG) (AG) (AG) (AG) (AG) (AG) (AG)
                 (AU) (AU) (AU) (AG) (AU) (AU) (AU) (AG) (AG) (AG)
                 (AG) (AU) (AU) (AU) (AU) (AG) (AU) (AU) (AG) (AG)
                 (AU) (AG) (AG) (AG) (AU) (AU) (AU) (AG) (AU) (AU)
                 (AG) (AG) (AG) (AG) (AG) (AG) (AU) (AU) (AU) (AG)
                 (AG) (AU) (AU) (AU) (AU) (AG) (AU) (AU) (AG) (AG)
                 (AG) (AG) (AG) (AG) (AU) (AU) (AU) (AG) (AU) (AU)
                 (AU) (AG) (AG) (AG) (AG) (AG) (AU) (AU) (AU) (AG)
                 (AG) (AG) (AU) (AU) (AU) (AU) (AU) (AG) (AG) (AU)
                 (AG) (AG) (AG) (AG) (AG) (AU) (AU) (AG) (AU) (AU)
                 (AG) (AU) (AU) (AU) (AU) (AG) (AU) (AU) (AG) (AG)
                 (AG) (AG) (AG) (AU) (AU) (AU) (AG) (AG) (AU) (AU)
                 (AU) (AU) (AU) (AU) (AG) (AU) (AU) (AU) (AU) (AU)
                 (AU) (AG) (AG) (AG) (AG) (AG)
 The electronic state is 4-AG.
 Alpha  occ. eigenvalues -- -302.61413 -37.25524 -32.70474 -32.68232 -32.68173
 Alpha  occ. eigenvalues --  -20.18379 -20.18379 -20.18358 -20.18357 -20.18329
 Alpha  occ. eigenvalues --  -20.18329  -5.12843  -3.73551  -3.69452  -3.69344
 Alpha  occ. eigenvalues --   -1.70234  -1.68842  -1.68819  -1.68767  -1.68583
 Alpha  occ. eigenvalues --   -1.68554  -1.31269  -1.31207  -1.30728  -1.25899
 Alpha  occ. eigenvalues --   -1.25890  -1.16371  -1.16335  -1.16110  -1.15565
 Alpha  occ. eigenvalues --   -1.15559  -1.15378  -1.15173  -1.08215  -1.08176
 Alpha  occ. eigenvalues --   -1.08130  -1.00953  -1.00938  -0.96474  -0.96316
 Alpha  occ. eigenvalues --   -0.96081  -0.96055  -0.95597  -0.95565
 Alpha virt. eigenvalues --   -0.45453  -0.40527  -0.40514  -0.40344  -0.36361
 Alpha virt. eigenvalues --   -0.36340  -0.34537  -0.34491  -0.33661  -0.32378
 Alpha virt. eigenvalues --   -0.32350  -0.32138  -0.28717  -0.26250  -0.26221
 Alpha virt. eigenvalues --   -0.26176  -0.26043  -0.24459  -0.24425  -0.23699
 Alpha virt. eigenvalues --   -0.23200  -0.23152  -0.22978  -0.22967  -0.22926
 Alpha virt. eigenvalues --   -0.20600  -0.19708  -0.19697  -0.19431  -0.17611
 Alpha virt. eigenvalues --   -0.17446  -0.17414  -0.16992  -0.16617  -0.16578
 Alpha virt. eigenvalues --   -0.15822  -0.15817  -0.14990  -0.14669  -0.14652
 Alpha virt. eigenvalues --   -0.13046  -0.11307  -0.11291  -0.11267  -0.09124
 Alpha virt. eigenvalues --   -0.09100  -0.08577  -0.06818  -0.05261  -0.01630
 Alpha virt. eigenvalues --   -0.01262  -0.01008  -0.00187   0.00404   0.00413
 Alpha virt. eigenvalues --    0.01926   0.02876   0.02997   0.03714   0.03942
 Alpha virt. eigenvalues --    0.10416   0.10488   0.13676   0.14678   0.14693
 Alpha virt. eigenvalues --    0.16149   0.16481   0.16543   0.17603   0.18415
 Alpha virt. eigenvalues --    0.18561   0.18910   0.23796   0.24057   0.25451
 Alpha virt. eigenvalues --    0.25584   0.26612   0.27022   0.30535   0.30599
 Alpha virt. eigenvalues --    0.32717   0.33191   0.33399   0.43133   0.43315
 Alpha virt. eigenvalues --    0.43366   0.45426   0.45551   0.46221   0.48046
 Alpha virt. eigenvalues --    0.48104   0.48257   0.51435   0.51519   0.51719
 Alpha virt. eigenvalues --    0.55314   0.57152   0.58491   0.58530   0.58716
 Alpha virt. eigenvalues --    0.58857   0.69516   0.71825   0.72009   0.72315
 Alpha virt. eigenvalues --    0.72800   0.72872   0.75055   0.75421   0.75476
 Alpha virt. eigenvalues --    0.78764   0.79354   0.83888   0.84574   0.85497
 Alpha virt. eigenvalues --    0.85580   0.90685   0.90743   0.96081   0.97402
 Alpha virt. eigenvalues --    0.97514   0.97707   0.97756   0.99186   1.01427
 Alpha virt. eigenvalues --    1.01473   1.02037   1.05041   1.13308   1.13746
 Alpha virt. eigenvalues --    1.14701   1.15558   1.15746   1.16513   1.16763
 Alpha virt. eigenvalues --    1.19115   1.19266   1.22053   1.22099   1.22495
 Alpha virt. eigenvalues --    1.24921   1.29579   1.29599   1.31727   1.31882
 Alpha virt. eigenvalues --    1.32049   1.42224   1.42278   1.44941   1.45092
 Alpha virt. eigenvalues --    1.46583   1.47920   1.50115   1.50580   1.52832
 Alpha virt. eigenvalues --    1.62357   1.62875   1.62926   1.70645   1.75998
 Alpha virt. eigenvalues --    1.76066   1.76190   1.76854   1.77144   1.79623
 Alpha virt. eigenvalues --    1.80780   1.80832   1.81300   1.86414   1.87034
 Alpha virt. eigenvalues --    1.88303   1.93871   1.94319   2.02937   2.13481
 Alpha virt. eigenvalues --    2.14026   2.14180   2.17547   2.17739   2.17866
 Alpha virt. eigenvalues --    2.38769   2.39670   2.40084   2.40227   2.42172
 Alpha virt. eigenvalues --    2.42344   2.42772   2.43136   2.53201   2.59576
 Alpha virt. eigenvalues --    2.59889   3.23939   3.24016   3.24072   3.25223
 Alpha virt. eigenvalues --    3.26065   3.26206   3.33404   3.34134   3.34768
 Alpha virt. eigenvalues --    3.34986   3.36769   3.37030   3.40834   3.41206
 Alpha virt. eigenvalues --    3.41536   3.41644   3.44384   3.44561   3.52276
 Alpha virt. eigenvalues --    3.62439   3.62519   3.64184   3.65716   3.65759
 Alpha virt. eigenvalues --    3.66099   3.66225   3.66261   3.66766   3.67332
 Alpha virt. eigenvalues --    3.67436   3.76125   3.76176   3.76904   3.77028
 Alpha virt. eigenvalues --    3.85959   3.86113   4.00122   4.71321   4.71390
 Alpha virt. eigenvalues --    4.71726   4.72158   4.72285   4.73846   5.15793
 Alpha virt. eigenvalues --    5.24681   5.24861   5.25836   5.31665   5.31793
 Alpha virt. eigenvalues --    5.68672   5.71644   5.71730   5.72600   5.74315
 Alpha virt. eigenvalues --    5.74414   6.11634   6.16729   6.16769   6.26712
 Alpha virt. eigenvalues --    6.26909   6.27957   6.31376   6.31518   6.32430
 Alpha virt. eigenvalues --    6.32465   6.33760   6.34340   6.34996   6.35166
 Alpha virt. eigenvalues --    6.50036   6.50389   6.51430   6.51504   6.52517
 Alpha virt. eigenvalues --    6.53530   6.56264   6.65671   6.65694   6.66491
 Alpha virt. eigenvalues --    6.67593   6.72277   6.73647   6.73745   6.75398
 Alpha virt. eigenvalues --    6.78839   6.78926   6.92468   6.92926   6.92972
 Alpha virt. eigenvalues --    6.93707   6.93817   6.95932   7.14167   7.14248
 Alpha virt. eigenvalues --    7.17079   7.18383   7.18698   8.44086   8.50771
 Alpha virt. eigenvalues --    8.50928  29.85976  35.88658  35.95448  35.95668
 Alpha virt. eigenvalues --   49.56802  49.58477  49.58545  49.60246  49.60320
 Alpha virt. eigenvalues --   49.60887 162.27054 844.76151
  Beta  occ. eigenvalues -- -302.61582 -37.15943 -32.61537 -32.61089 -32.61078
  Beta  occ. eigenvalues --  -20.18098 -20.18098 -20.18078 -20.18078 -20.18051
  Beta  occ. eigenvalues --  -20.18051  -4.98518  -3.52232  -3.52228  -3.52199
  Beta  occ. eigenvalues --   -1.69484  -1.68071  -1.68052  -1.67998  -1.67688
  Beta  occ. eigenvalues --   -1.67665  -1.18737  -1.18734  -1.16020  -1.15985
  Beta  occ. eigenvalues --   -1.15769  -1.15608  -1.13691  -1.13466  -1.13449
  Beta  occ. eigenvalues --   -1.08137  -1.08101  -1.06215  -1.06196  -1.06148
  Beta  occ. eigenvalues --   -0.97491  -0.95175  -0.94967  -0.94963  -0.94446
  Beta  occ. eigenvalues --   -0.94403
  Beta virt. eigenvalues --   -0.69669  -0.64357  -0.64333  -0.45238  -0.40428
  Beta virt. eigenvalues --   -0.40415  -0.40241  -0.36106  -0.36086  -0.34425
  Beta virt. eigenvalues --   -0.34378  -0.33518  -0.32263  -0.32236  -0.32031
  Beta virt. eigenvalues --   -0.27658  -0.26086  -0.26060  -0.26030  -0.25544
  Beta virt. eigenvalues --   -0.24335  -0.24304  -0.23319  -0.22980  -0.22933
  Beta virt. eigenvalues --   -0.22785  -0.22746  -0.22739  -0.20502  -0.19592
  Beta virt. eigenvalues --   -0.19577  -0.19119  -0.17519  -0.17334  -0.17300
  Beta virt. eigenvalues --   -0.16768  -0.16504  -0.16466  -0.15688  -0.15683
  Beta virt. eigenvalues --   -0.14637  -0.14597  -0.14577  -0.12864  -0.11097
  Beta virt. eigenvalues --   -0.11078  -0.10922  -0.09012  -0.08978  -0.08427
  Beta virt. eigenvalues --   -0.06655  -0.04987  -0.01499  -0.01112  -0.00863
  Beta virt. eigenvalues --    0.00214   0.00775   0.00787   0.02986   0.03055
  Beta virt. eigenvalues --    0.03246   0.03860   0.04085   0.10549   0.10621
  Beta virt. eigenvalues --    0.13769   0.14824   0.14843   0.16636   0.16688
  Beta virt. eigenvalues --    0.16752   0.17675   0.18471   0.18616   0.18994
  Beta virt. eigenvalues --    0.23804   0.24068   0.25475   0.25612   0.26629
  Beta virt. eigenvalues --    0.27019   0.31022   0.31088   0.32741   0.33231
  Beta virt. eigenvalues --    0.33438   0.43216   0.43416   0.43466   0.46230
  Beta virt. eigenvalues --    0.46300   0.46363   0.48190   0.48285   0.48344
  Beta virt. eigenvalues --    0.51574   0.51657   0.51924   0.55509   0.57090
  Beta virt. eigenvalues --    0.58566   0.58620   0.58790   0.58947   0.69774
  Beta virt. eigenvalues --    0.72037   0.72221   0.72523   0.72904   0.72944
  Beta virt. eigenvalues --    0.75118   0.76315   0.76426   0.79519   0.80065
  Beta virt. eigenvalues --    0.83772   0.84413   0.85394   0.85476   0.91938
  Beta virt. eigenvalues --    0.91974   0.96014   0.97547   0.97657   0.97720
  Beta virt. eigenvalues --    0.97768   0.99511   1.01484   1.01530   1.02099
  Beta virt. eigenvalues --    1.05258   1.13503   1.13739   1.16331   1.16511
  Beta virt. eigenvalues --    1.16701   1.16953   1.18000   1.20190   1.20356
  Beta virt. eigenvalues --    1.22359   1.22407   1.22877   1.25112   1.29627
  Beta virt. eigenvalues --    1.29646   1.32596   1.32755   1.33748   1.42545
  Beta virt. eigenvalues --    1.42600   1.45586   1.45739   1.47329   1.48117
  Beta virt. eigenvalues --    1.50226   1.50692   1.53016   1.63279   1.64010
  Beta virt. eigenvalues --    1.64062   1.71730   1.75931   1.76269   1.76396
  Beta virt. eigenvalues --    1.77446   1.77726   1.80488   1.81198   1.81247
  Beta virt. eigenvalues --    1.82139   1.87137   1.87717   1.88601   1.93796
  Beta virt. eigenvalues --    1.94247   2.02883   2.13576   2.17563   2.17716
  Beta virt. eigenvalues --    2.18555   2.18839   2.18951   2.38919   2.41002
  Beta virt. eigenvalues --    2.41088   2.41256   2.42278   2.42455   2.43205
  Beta virt. eigenvalues --    2.43557   2.53548   2.59749   2.60048   3.23964
  Beta virt. eigenvalues --    3.24044   3.24098   3.25250   3.26091   3.26232
  Beta virt. eigenvalues --    3.33410   3.34145   3.34808   3.35027   3.36764
  Beta virt. eigenvalues --    3.37029   3.40900   3.41256   3.41602   3.41709
  Beta virt. eigenvalues --    3.44386   3.44561   3.54322   3.62561   3.62641
  Beta virt. eigenvalues --    3.64326   3.65888   3.65933   3.66286   3.66600
  Beta virt. eigenvalues --    3.66636   3.67068   3.67589   3.67693   3.76217
  Beta virt. eigenvalues --    3.76636   3.76968   3.77093   3.86236   3.86391
  Beta virt. eigenvalues --    4.04369   4.71833   4.71897   4.72240   4.72665
  Beta virt. eigenvalues --    4.72797   4.74360   5.16425   5.25158   5.25336
  Beta virt. eigenvalues --    5.26319   5.32377   5.32506   5.69322   5.71990
  Beta virt. eigenvalues --    5.72078   5.73076   5.74800   5.74899   6.20336
  Beta virt. eigenvalues --    6.20391   6.24481   6.29668   6.32629   6.32654
  Beta virt. eigenvalues --    6.34073   6.34152   6.34507   6.34658   6.36898
  Beta virt. eigenvalues --    6.37418   6.37494   6.38282   6.50864   6.51218
  Beta virt. eigenvalues --    6.54716   6.54784   6.55624   6.55853   6.62787
  Beta virt. eigenvalues --    6.68321   6.69935   6.69964   6.70666   6.73867
  Beta virt. eigenvalues --    6.75928   6.76243   6.76357   6.79532   6.79614
  Beta virt. eigenvalues --    6.93285   6.93580   6.93623   6.96122   6.96213
  Beta virt. eigenvalues --    6.98396   7.22714   7.22789   7.23518   7.24136
  Beta virt. eigenvalues --    7.24403   8.52323   8.56875   8.57003  30.05778
  Beta virt. eigenvalues --   36.05222  36.08525  36.08638  49.56633  49.58308
  Beta virt. eigenvalues --   49.58378  49.60077  49.60151  49.60723 162.25584
  Beta virt. eigenvalues --  844.75054
          Condensed to atoms (all electrons):
               1          2          3          4          5          6
     1  Ni  28.131311   0.106330  -0.061602  -0.063291   0.107409  -0.063521
     2  O    0.106330   7.812598   0.282326   0.275070  -0.059934   0.013164
     3  H   -0.061602   0.282326   0.344983   0.001953   0.004767   0.000289
     4  H   -0.063291   0.275070   0.001953   0.354401   0.004849   0.000434
     5  O    0.107409  -0.059934   0.004767   0.004849   7.813778   0.274703
     6  H   -0.063521   0.013164   0.000289   0.000434   0.274703   0.354246
     7  H   -0.061669   0.001647   0.001034   0.000803   0.281854   0.002341
     8  O    0.107351  -0.060954   0.001613   0.013252  -0.061271   0.005015
     9  H   -0.061672   0.004803   0.001041   0.000278   0.001643   0.000838
    10  H   -0.063757   0.005107   0.000824   0.000368   0.013596   0.000424
    11  O    0.106330   0.018694   0.000512   0.000477  -0.062282   0.000894
    12  H   -0.061602   0.000512   0.000204   0.000124   0.004163   0.000899
    13  H   -0.063291   0.000477   0.000124   0.000208   0.005973   0.001024
    14  O    0.107409  -0.062282   0.004163   0.005973   0.018535   0.000479
    15  H   -0.063521   0.000894   0.000899   0.001024   0.000479   0.000203
    16  H   -0.061669   0.012911   0.000908   0.000294   0.000517   0.000124
    17  O    0.107351  -0.062600   0.012822   0.000872  -0.062074   0.005910
    18  H   -0.061672   0.004185   0.000912   0.000909   0.012821   0.000279
    19  H   -0.063757   0.006056   0.000264   0.001030   0.000853   0.001003
               7          8          9         10         11         12
     1  Ni  -0.061669   0.107351  -0.061672  -0.063757   0.106330  -0.061602
     2  O    0.001647  -0.060954   0.004803   0.005107   0.018694   0.000512
     3  H    0.001034   0.001613   0.001041   0.000824   0.000512   0.000204
     4  H    0.000803   0.013252   0.000278   0.000368   0.000477   0.000124
     5  O    0.281854  -0.061271   0.001643   0.013596  -0.062282   0.004163
     6  H    0.002341   0.005015   0.000838   0.000424   0.000894   0.000899
     7  H    0.345452   0.004870   0.001046   0.000248   0.012911   0.000908
     8  O    0.004870   7.812969   0.281958   0.274226  -0.062600   0.012822
     9  H    0.001046   0.281958   0.345363   0.002132   0.004185   0.000912
    10  H    0.000248   0.274226   0.002132   0.354776   0.006056   0.000264
    11  O    0.012911  -0.062600   0.004185   0.006056   7.812598   0.282326
    12  H    0.000908   0.012822   0.000912   0.000264   0.282326   0.344983
    13  H    0.000294   0.000872   0.000909   0.001030   0.275070   0.001953
    14  O    0.000517  -0.062074   0.012821   0.000853  -0.059934   0.004767
    15  H    0.000124   0.005910   0.000279   0.001003   0.013164   0.000289
    16  H    0.000197   0.004229   0.000873   0.000895   0.001647   0.001034
    17  O    0.004229   0.018655   0.000511   0.000510  -0.060954   0.001613
    18  H    0.000873   0.000511   0.000207   0.000124   0.004803   0.001041
    19  H    0.000895   0.000510   0.000124   0.000206   0.005107   0.000824
              13         14         15         16         17         18
     1  Ni  -0.063291   0.107409  -0.063521  -0.061669   0.107351  -0.061672
     2  O    0.000477  -0.062282   0.000894   0.012911  -0.062600   0.004185
     3  H    0.000124   0.004163   0.000899   0.000908   0.012822   0.000912
     4  H    0.000208   0.005973   0.001024   0.000294   0.000872   0.000909
     5  O    0.005973   0.018535   0.000479   0.000517  -0.062074   0.012821
     6  H    0.001024   0.000479   0.000203   0.000124   0.005910   0.000279
     7  H    0.000294   0.000517   0.000124   0.000197   0.004229   0.000873
     8  O    0.000872  -0.062074   0.005910   0.004229   0.018655   0.000511
     9  H    0.000909   0.012821   0.000279   0.000873   0.000511   0.000207
    10  H    0.001030   0.000853   0.001003   0.000895   0.000510   0.000124
    11  O    0.275070  -0.059934   0.013164   0.001647  -0.060954   0.004803
    12  H    0.001953   0.004767   0.000289   0.001034   0.001613   0.001041
    13  H    0.354401   0.004849   0.000434   0.000803   0.013252   0.000278
    14  O    0.004849   7.813778   0.274703   0.281854  -0.061271   0.001643
    15  H    0.000434   0.274703   0.354246   0.002341   0.005015   0.000838
    16  H    0.000803   0.281854   0.002341   0.345452   0.004870   0.001046
    17  O    0.013252  -0.061271   0.005015   0.004870   7.812969   0.281958
    18  H    0.000278   0.001643   0.000838   0.001046   0.281958   0.345363
    19  H    0.000368   0.013596   0.000424   0.000248   0.274226   0.002132
              19
     1  Ni  -0.063757
     2  O    0.006056
     3  H    0.000264
     4  H    0.001030
     5  O    0.000853
     6  H    0.001003
     7  H    0.000895
     8  O    0.000510
     9  H    0.000124
    10  H    0.000206
    11  O    0.005107
    12  H    0.000824
    13  H    0.000368
    14  O    0.013596
    15  H    0.000424
    16  H    0.000248
    17  O    0.274226
    18  H    0.002132
    19  H    0.354776
          Atomic-Atomic Spin Densities.
               1          2          3          4          5          6
     1  Ni   2.682870  -0.054168   0.003198   0.002903  -0.054209   0.002885
     2  O   -0.054168   0.184214  -0.006170  -0.006038  -0.008713   0.000303
     3  H    0.003198  -0.006170   0.003199   0.001639   0.000874  -0.000053
     4  H    0.002903  -0.006038   0.001639   0.003568   0.000811  -0.000055
     5  O   -0.054209  -0.008713   0.000874   0.000811   0.183546  -0.006004
     6  H    0.002885   0.000303  -0.000053  -0.000055  -0.006004   0.003594
     7  H    0.003266   0.000162  -0.000026   0.000026  -0.006246   0.001643
     8  O   -0.054265  -0.008807   0.000162   0.000323  -0.008773   0.000818
     9  H    0.003229   0.000872  -0.000026  -0.000056   0.000165   0.000025
    10  H    0.002910   0.000836   0.000027  -0.000059   0.000322  -0.000057
    11  O   -0.054168   0.005918  -0.000174  -0.000146  -0.008382   0.000226
    12  H    0.003198  -0.000174   0.000001   0.000026   0.000844   0.000006
    13  H    0.002903  -0.000146   0.000026   0.000005   0.000908  -0.000006
    14  O   -0.054209  -0.008382   0.000844   0.000908   0.005886  -0.000143
    15  H    0.002885   0.000226   0.000006  -0.000006  -0.000143   0.000005
    16  H    0.003266   0.000227  -0.000116  -0.000027  -0.000176   0.000026
    17  O   -0.054265  -0.008460   0.000231   0.000228  -0.008423   0.000900
    18  H    0.003229   0.000844  -0.000116   0.000005   0.000230  -0.000023
    19  H    0.002910   0.000909  -0.000022  -0.000006   0.000225  -0.000005
               7          8          9         10         11         12
     1  Ni   0.003266  -0.054265   0.003229   0.002910  -0.054168   0.003198
     2  O    0.000162  -0.008807   0.000872   0.000836   0.005918  -0.000174
     3  H   -0.000026   0.000162  -0.000026   0.000027  -0.000174   0.000001
     4  H    0.000026   0.000323  -0.000056  -0.000059  -0.000146   0.000026
     5  O   -0.006246  -0.008773   0.000165   0.000322  -0.008382   0.000844
     6  H    0.001643   0.000818   0.000025  -0.000057   0.000226   0.000006
     7  H    0.003214   0.000872  -0.000026  -0.000057   0.000227  -0.000116
     8  O    0.000872   0.184962  -0.006170  -0.006098  -0.008460   0.000231
     9  H   -0.000026  -0.006170   0.003192   0.001639   0.000844  -0.000116
    10  H   -0.000057  -0.006098   0.001639   0.003560   0.000909  -0.000022
    11  O    0.000227  -0.008460   0.000844   0.000909   0.184214  -0.006170
    12  H   -0.000116   0.000231  -0.000116  -0.000022  -0.006170   0.003199
    13  H   -0.000027   0.000228   0.000005  -0.000006  -0.006038   0.001639
    14  O   -0.000176  -0.008423   0.000230   0.000225  -0.008713   0.000874
    15  H    0.000026   0.000900  -0.000023  -0.000005   0.000303  -0.000053
    16  H    0.000001   0.000849  -0.000116   0.000006   0.000162  -0.000026
    17  O    0.000849   0.005922  -0.000176  -0.000147  -0.008807   0.000162
    18  H   -0.000116  -0.000176   0.000001   0.000026   0.000872  -0.000026
    19  H    0.000006  -0.000147   0.000026   0.000006   0.000836   0.000027
              13         14         15         16         17         18
     1  Ni   0.002903  -0.054209   0.002885   0.003266  -0.054265   0.003229
     2  O   -0.000146  -0.008382   0.000226   0.000227  -0.008460   0.000844
     3  H    0.000026   0.000844   0.000006  -0.000116   0.000231  -0.000116
     4  H    0.000005   0.000908  -0.000006  -0.000027   0.000228   0.000005
     5  O    0.000908   0.005886  -0.000143  -0.000176  -0.008423   0.000230
     6  H   -0.000006  -0.000143   0.000005   0.000026   0.000900  -0.000023
     7  H   -0.000027  -0.000176   0.000026   0.000001   0.000849  -0.000116
     8  O    0.000228  -0.008423   0.000900   0.000849   0.005922  -0.000176
     9  H    0.000005   0.000230  -0.000023  -0.000116  -0.000176   0.000001
    10  H   -0.000006   0.000225  -0.000005   0.000006  -0.000147   0.000026
    11  O   -0.006038  -0.008713   0.000303   0.000162  -0.008807   0.000872
    12  H    0.001639   0.000874  -0.000053  -0.000026   0.000162  -0.000026
    13  H    0.003568   0.000811  -0.000055   0.000026   0.000323  -0.000056
    14  O    0.000811   0.183546  -0.006004  -0.006246  -0.008773   0.000165
    15  H   -0.000055  -0.006004   0.003594   0.001643   0.000818   0.000025
    16  H    0.000026  -0.006246   0.001643   0.003214   0.000872  -0.000026
    17  O    0.000323  -0.008773   0.000818   0.000872   0.184962  -0.006170
    18  H   -0.000056   0.000165   0.000025  -0.000026  -0.006170   0.003192
    19  H   -0.000059   0.000322  -0.000057  -0.000057  -0.006098   0.001639
              19
     1  Ni   0.002910
     2  O    0.000909
     3  H   -0.000022
     4  H   -0.000006
     5  O    0.000225
     6  H   -0.000005
     7  H    0.000006
     8  O   -0.000147
     9  H    0.000026
    10  H    0.000006
    11  O    0.000836
    12  H    0.000027
    13  H   -0.000059
    14  O    0.000322
    15  H   -0.000057
    16  H   -0.000057
    17  O   -0.006098
    18  H    0.001639
    19  H    0.003560
 Mulliken charges and spin densities:
               1          2
     1  Ni  -0.022466   2.394367
     2  O   -0.299003   0.093453
     3  H    0.401965   0.003504
     4  H    0.400972   0.004048
     5  O   -0.300381   0.092742
     6  H    0.401252   0.004086
     7  H    0.401425   0.003503
     8  O   -0.297863   0.093948
     9  H    0.401750   0.003520
    10  H    0.401116   0.004014
    11  O   -0.299003   0.093453
    12  H    0.401965   0.003504
    13  H    0.400972   0.004048
    14  O   -0.300381   0.092742
    15  H    0.401252   0.004086
    16  H    0.401425   0.003503
    17  O   -0.297863   0.093948
    18  H    0.401750   0.003520
    19  H    0.401116   0.004014
 Sum of Mulliken charges =   3.00000   3.00000
 Mulliken charges and spin densities with hydrogens summed into heavy atoms:
               1          2
     1  Ni  -0.022466   2.394367
     2  O    0.503934   0.101005
     5  O    0.502296   0.100331
     8  O    0.505003   0.101481
    11  O    0.503934   0.101005
    14  O    0.502296   0.100331
    17  O    0.505003   0.101481
 Electronic spatial extent (au):  <R**2>=            993.1182
 Charge=              3.0000 electrons
 Dipole moment (field-independent basis, Debye):
    X=              0.0000    Y=              0.0000    Z=              0.0000  Tot=              0.0000
 Quadrupole moment (field-independent basis, Debye-Ang):
   XX=             -6.9920   YY=             -6.9028   ZZ=             -6.8985
   XY=              0.7198   XZ=              0.7942   YZ=             -0.7510
 Traceless Quadrupole moment (field-independent basis, Debye-Ang):
   XX=             -0.0609   YY=              0.0283   ZZ=              0.0326
   XY=              0.7198   XZ=              0.7942   YZ=             -0.7510
 Octapole moment (field-independent basis, Debye-Ang**2):
  XXX=              0.0000  YYY=              0.0000  ZZZ=              0.0000  XYY=              0.0000
  XXY=              0.0000  XXZ=              0.0000  XZZ=              0.0000  YZZ=              0.0000
  YYZ=              0.0000  XYZ=              0.0000
 Hexadecapole moment (field-independent basis, Debye-Ang**3):
 XXXX=            -42.4799 YYYY=            -43.2419 ZZZZ=            -42.3190 XXXY=              7.2280
 XXXZ=              0.6335 YYYX=             -9.9757 YYYZ=              2.2397 ZZZX=             -2.8827
 ZZZY=              0.5681 XXYY=            -79.3315 XXZZ=            -80.2187 YYZZ=            -79.4260
 XXYZ=             -6.4183 YYXZ=              4.3044 ZZXY=              5.0145
 N-N= 7.320087420781D+02 E-N=-6.095611800178D+03  KE= 1.962740315880D+03
 Symmetry AG   KE= 1.227964807160D+03
 Symmetry AU   KE= 7.347755087198D+02
                          Isotropic Fermi Contact Couplings
        Atom                 a.u.       MegaHertz       Gauss      10(-4) cm-1
     1  Ni(61)            -1.62522     216.76639      77.34764      72.30548
     2  O(17)              0.16317     -32.97064     -11.76475     -10.99782
     3  H(1)               0.00149       2.21824       0.79152       0.73992
     4  H(1)               0.00187       2.78366       0.99328       0.92853
     5  O(17)              0.16281     -32.89798     -11.73882     -10.97358
     6  H(1)               0.00190       2.82834       1.00922       0.94343
     7  H(1)               0.00147       2.18320       0.77902       0.72824
     8  O(17)              0.16327     -32.99105     -11.77203     -11.00463
     9  H(1)               0.00150       2.23631       0.79797       0.74595
    10  H(1)               0.00184       2.73595       0.97626       0.91262
    11  O(17)              0.16317     -32.97064     -11.76475     -10.99782
    12  H(1)               0.00149       2.21824       0.79152       0.73992
    13  H(1)               0.00187       2.78366       0.99328       0.92853
    14  O(17)              0.16281     -32.89798     -11.73882     -10.97358
    15  H(1)               0.00190       2.82834       1.00922       0.94343
    16  H(1)               0.00147       2.18320       0.77902       0.72824
    17  O(17)              0.16327     -32.99105     -11.77203     -11.00463
    18  H(1)               0.00150       2.23631       0.79797       0.74595
    19  H(1)               0.00184       2.73595       0.97626       0.91262
 --------------------------------------------------------
       Center         ----  Spin Dipole Couplings  ----
                      3XX-RR        3YY-RR        3ZZ-RR
 --------------------------------------------------------
     1   Atom        0.124752     -0.069214     -0.055538
     2   Atom        0.320060     -0.231262     -0.088797
     3   Atom        0.031055     -0.001581     -0.029473
     4   Atom        0.035484     -0.005935     -0.029549
     5   Atom       -0.228752     -0.092762      0.321514
     6   Atom       -0.003797     -0.029203      0.032999
     7   Atom       -0.004418     -0.029211      0.033629
     8   Atom       -0.084235      0.318586     -0.234350
     9   Atom       -0.029162      0.033217     -0.004056
    10   Atom       -0.030064      0.033266     -0.003202
    11   Atom        0.320060     -0.231262     -0.088797
    12   Atom        0.031055     -0.001581     -0.029473
    13   Atom        0.035484     -0.005935     -0.029549
    14   Atom       -0.228752     -0.092762      0.321514
    15   Atom       -0.003797     -0.029203      0.032999
    16   Atom       -0.004418     -0.029211      0.033629
    17   Atom       -0.084235      0.318586     -0.234350
    18   Atom       -0.029162      0.033217     -0.004056
    19   Atom       -0.030064      0.033266     -0.003202
 --------------------------------------------------------
                        XY            XZ            YZ
 --------------------------------------------------------
     1   Atom       -1.062090     -1.138398      1.033520
     2   Atom        0.020046     -0.005231      0.034234
     3   Atom        0.028102     -0.003309     -0.003963
     4   Atom       -0.024852      0.004807     -0.003926
     5   Atom       -0.037829     -0.006533      0.007574
     6   Atom        0.004868     -0.026479     -0.005145
     7   Atom        0.004535      0.026195      0.004437
     8   Atom       -0.025002     -0.032589      0.006380
     9   Atom       -0.006095      0.004578     -0.026365
    10   Atom        0.000945      0.002360      0.027104
    11   Atom        0.020046     -0.005231      0.034234
    12   Atom        0.028102     -0.003309     -0.003963
    13   Atom       -0.024852      0.004807     -0.003926
    14   Atom       -0.037829     -0.006533      0.007574
    15   Atom        0.004868     -0.026479     -0.005145
    16   Atom        0.004535      0.026195      0.004437
    17   Atom       -0.025002     -0.032589      0.006380
    18   Atom       -0.006095      0.004578     -0.026365
    19   Atom        0.000945      0.002360      0.027104
 --------------------------------------------------------


 ---------------------------------------------------------------------------------
              Anisotropic Spin Dipole Couplings in Principal Axis System
 ---------------------------------------------------------------------------------

       Atom             a.u.   MegaHertz   Gauss  10(-4) cm-1        Axes

              Baa    -1.1223    53.603    19.127    17.880  0.4483 -0.3536  0.8210
     1 Ni(61) Bbb    -1.0386    49.606    17.700    16.547  0.6559  0.7541 -0.0333
              Bcc     2.1609  -103.209   -36.827   -34.427  0.6073 -0.5534 -0.5700
 
              Baa    -0.2398    17.354     6.192     5.789 -0.0370  0.9743 -0.2221
     2 O(17)  Bbb    -0.0810     5.861     2.091     1.955  0.0016  0.2223  0.9750
              Bcc     0.3208   -23.215    -8.284    -7.744  0.9993  0.0357 -0.0098
 
              Baa    -0.0300   -16.026    -5.718    -5.346 -0.0179  0.1553  0.9877
     3 H(1)   Bbb    -0.0175    -9.338    -3.332    -3.115 -0.5030  0.8523 -0.1431
              Bcc     0.0475    25.364     9.050     8.461  0.8641  0.4994 -0.0628
 
              Baa    -0.0302   -16.113    -5.749    -5.375 -0.0194  0.1403  0.9899
     4 H(1)   Bbb    -0.0174    -9.281    -3.312    -3.096  0.4312  0.8945 -0.1184
              Bcc     0.0476    25.394     9.061     8.471  0.9021 -0.4245  0.0778
 
              Baa    -0.2386    17.265     6.161     5.759  0.9680  0.2507  0.0079
     5 O(17)  Bbb    -0.0831     6.016     2.147     2.007 -0.2505  0.9679 -0.0222
              Bcc     0.3217   -23.281    -8.307    -7.766 -0.0132  0.0195  0.9997
 
              Baa    -0.0301   -16.063    -5.732    -5.358 -0.1755  0.9845  0.0066
     6 H(1)   Bbb    -0.0173    -9.255    -3.302    -3.087  0.8684  0.1516  0.4722
              Bcc     0.0475    25.317     9.034     8.445 -0.4639 -0.0886  0.8815
 
              Baa    -0.0300   -16.015    -5.715    -5.342 -0.1799  0.9837  0.0055
     7 H(1)   Bbb    -0.0174    -9.303    -3.319    -3.103  0.8722  0.1620 -0.4615
              Bcc     0.0475    25.318     9.034     8.445  0.4549  0.0782  0.8871
 
              Baa    -0.2411    17.447     6.226     5.820  0.2031 -0.0021  0.9792
     8 O(17)  Bbb    -0.0791     5.726     2.043     1.910  0.9771  0.0647 -0.2025
              Bcc     0.3203   -23.174    -8.269    -7.730 -0.0629  0.9979  0.0152
 
              Baa    -0.0300   -16.020    -5.716    -5.344  0.9901  0.0393 -0.1346
     9 H(1)   Bbb    -0.0176    -9.379    -3.346    -3.128  0.1008  0.4678  0.8780
              Bcc     0.0476    25.399     9.063     8.472 -0.0975  0.8829 -0.4593
 
              Baa    -0.0303   -16.179    -5.773    -5.397  0.9915  0.0384 -0.1246
    10 H(1)   Bbb    -0.0174    -9.296    -3.317    -3.101  0.1280 -0.4695  0.8736
              Bcc     0.0477    25.475     9.090     8.498  0.0250  0.8821  0.4704
 
              Baa    -0.2398    17.354     6.192     5.789 -0.0370  0.9743 -0.2221
    11 O(17)  Bbb    -0.0810     5.861     2.091     1.955  0.0016  0.2223  0.9750
              Bcc     0.3208   -23.215    -8.284    -7.744  0.9993  0.0357 -0.0098
 
              Baa    -0.0300   -16.026    -5.718    -5.346 -0.0179  0.1553  0.9877
    12 H(1)   Bbb    -0.0175    -9.338    -3.332    -3.115 -0.5030  0.8523 -0.1431
              Bcc     0.0475    25.364     9.050     8.461  0.8641  0.4994 -0.0628
 
              Baa    -0.0302   -16.113    -5.749    -5.375 -0.0194  0.1403  0.9899
    13 H(1)   Bbb    -0.0174    -9.281    -3.312    -3.096  0.4312  0.8945 -0.1184
              Bcc     0.0476    25.394     9.061     8.471  0.9021 -0.4245  0.0778
 
              Baa    -0.2386    17.265     6.161     5.759  0.9680  0.2507  0.0079
    14 O(17)  Bbb    -0.0831     6.016     2.147     2.007 -0.2505  0.9679 -0.0222
              Bcc     0.3217   -23.281    -8.307    -7.766 -0.0132  0.0195  0.9997
 
              Baa    -0.0301   -16.063    -5.732    -5.358 -0.1755  0.9845  0.0066
    15 H(1)   Bbb    -0.0173    -9.255    -3.302    -3.087  0.8684  0.1516  0.4722
              Bcc     0.0475    25.317     9.034     8.445 -0.4639 -0.0886  0.8815
 
              Baa    -0.0300   -16.015    -5.715    -5.342 -0.1799  0.9837  0.0055
    16 H(1)   Bbb    -0.0174    -9.303    -3.319    -3.103  0.8722  0.1620 -0.4615
              Bcc     0.0475    25.318     9.034     8.445  0.4549  0.0782  0.8871
 
              Baa    -0.2411    17.447     6.226     5.820  0.2031 -0.0021  0.9792
    17 O(17)  Bbb    -0.0791     5.726     2.043     1.910  0.9771  0.0647 -0.2025
              Bcc     0.3203   -23.174    -8.269    -7.730 -0.0629  0.9979  0.0152
 
              Baa    -0.0300   -16.020    -5.716    -5.344  0.9901  0.0393 -0.1346
    18 H(1)   Bbb    -0.0176    -9.379    -3.346    -3.128  0.1008  0.4678  0.8780
              Bcc     0.0476    25.399     9.063     8.472 -0.0975  0.8829 -0.4593
 
              Baa    -0.0303   -16.179    -5.773    -5.397  0.9915  0.0384 -0.1246
    19 H(1)   Bbb    -0.0174    -9.296    -3.317    -3.101  0.1280 -0.4695  0.8736
              Bcc     0.0477    25.475     9.090     8.498  0.0250  0.8821  0.4704
 

 ---------------------------------------------------------------------------------

 Calling FoFJK, ICntrl=      2127 FMM=F ISym2X=1 I1Cent= 0 IOpClX= 1 NMat=1 NMatS=1 NMatT=0.
 ***** Axes restored to original set *****
 -------------------------------------------------------------------
 Center     Atomic                   Forces (Hartrees/Bohr)
 Number     Number              X              Y              Z
 -------------------------------------------------------------------
      1       28           0.000000000    0.000000000    0.000000000
      2        8          -0.000348943    0.000224573    0.000127168
      3        1           0.000071651   -0.000082385    0.000004578
      4        1           0.000135785    0.000119855    0.000045759
      5        8           0.000042127    0.000041916    0.000002610
      6        1          -0.000124858   -0.000056259   -0.000064255
      7        1           0.000035475    0.000074574    0.000031399
      8        8           0.000144254    0.000296474    0.000082760
      9        1          -0.000089595   -0.000087052   -0.000030899
     10        1           0.000064561    0.000002280   -0.000056063
     11        8           0.000348943   -0.000224573   -0.000127168
     12        1          -0.000071651    0.000082385   -0.000004578
     13        1          -0.000135785   -0.000119855   -0.000045759
     14        8          -0.000042127   -0.000041916   -0.000002610
     15        1           0.000124858    0.000056259    0.000064255
     16        1          -0.000035475   -0.000074574   -0.000031399
     17        8          -0.000144254   -0.000296474   -0.000082760
     18        1           0.000089595    0.000087052    0.000030899
     19        1          -0.000064561   -0.000002280    0.000056063
 -------------------------------------------------------------------
 Cartesian Forces:  Max     0.000348943 RMS     0.000119775

 GradGradGradGradGradGradGradGradGradGradGradGradGradGradGradGradGradGrad
 Berny optimization.
 FormGI is forming the generalized inverse of G from B-inverse, IUseBI=4.
 Internal  Forces:  Max     0.000206885 RMS     0.000074979
 Search for a local minimum.
 Step number   1 out of a maximum of  114
 All quantities printed in internal units (Hartrees-Bohrs-Radians)
 Mixed Optimization -- En-DIIS/RFO-DIIS
 Second derivative matrix not updated -- first step.
 ITU=  0
     Eigenvalues ---    0.01282   0.01290   0.01297   0.01606   0.01618
     Eigenvalues ---    0.01625   0.01633   0.01645   0.01653   0.02333
     Eigenvalues ---    0.02351   0.02363   0.06972   0.06972   0.06984
     Eigenvalues ---    0.08020   0.08034   0.08039   0.13449   0.13762
     Eigenvalues ---    0.13813   0.14777   0.14777   0.14826   0.14826
     Eigenvalues ---    0.14861   0.14861   0.16000   0.16000   0.16000
     Eigenvalues ---    0.16000   0.16000   0.16000   0.16000   0.16000
     Eigenvalues ---    0.16000   0.16000   0.16000   0.16000   0.52694
     Eigenvalues ---    0.52694   0.52715   0.52715   0.52726   0.52726
     Eigenvalues ---    0.52732   0.52732   0.52741   0.52741   0.52765
     Eigenvalues ---    0.52765
 RFO step:  Lambda=-5.43865016D-06 EMin= 1.28154775D-02
 Linear search not attempted -- first point.
 Iteration  1 RMS(Cart)=  0.00130522 RMS(Int)=  0.00000088
 Iteration  2 RMS(Cart)=  0.00000084 RMS(Int)=  0.00000013
 ClnCor:  largest displacement from symmetrization is 1.36D-08 for atom    19.
 Variable       Old X    -DE/DX   Delta X   Delta X   Delta X     New X
                                 (Linear)    (Quad)   (Total)
    R1        3.74242   0.00013   0.00000   0.00086   0.00086   3.74328
    R2        3.74492  -0.00003   0.00000  -0.00021  -0.00021   3.74471
    R3        3.74063   0.00021   0.00000   0.00139   0.00139   3.74202
    R4        3.74242   0.00013   0.00000   0.00086   0.00086   3.74328
    R5        3.74492  -0.00003   0.00000  -0.00021  -0.00021   3.74471
    R6        3.74063   0.00021   0.00000   0.00139   0.00139   3.74202
    R7        1.83896   0.00006   0.00000   0.00011   0.00011   1.83907
    R8        1.83921  -0.00003   0.00000  -0.00005  -0.00005   1.83916
    R9        1.83910   0.00008   0.00000   0.00016   0.00016   1.83926
   R10        1.83874   0.00004   0.00000   0.00008   0.00008   1.83882
   R11        1.83905  -0.00002   0.00000  -0.00004  -0.00004   1.83902
   R12        1.83940  -0.00004   0.00000  -0.00007  -0.00007   1.83934
   R13        1.83896   0.00006   0.00000   0.00011   0.00011   1.83907
   R14        1.83921  -0.00003   0.00000  -0.00005  -0.00005   1.83916
   R15        1.83910   0.00008   0.00000   0.00016   0.00016   1.83926
   R16        1.83874   0.00004   0.00000   0.00008   0.00008   1.83882
   R17        1.83905  -0.00002   0.00000  -0.00004  -0.00004   1.83902
   R18        1.83940  -0.00004   0.00000  -0.00007  -0.00007   1.83934
    A1        1.58256  -0.00014   0.00000  -0.00104  -0.00104   1.58153
    A2        1.58084  -0.00008   0.00000  -0.00062  -0.00062   1.58022
    A3        1.55903   0.00014   0.00000   0.00104   0.00104   1.56007
    A4        1.56075   0.00008   0.00000   0.00062   0.00062   1.56137
    A5        1.57849   0.00000   0.00000  -0.00001  -0.00001   1.57848
    A6        1.55903   0.00014   0.00000   0.00104   0.00104   1.56007
    A7        1.56311   0.00000   0.00000   0.00001   0.00001   1.56311
    A8        1.56075   0.00008   0.00000   0.00062   0.00062   1.56137
    A9        1.56311   0.00000   0.00000   0.00001   0.00001   1.56311
   A10        1.58256  -0.00014   0.00000  -0.00104  -0.00104   1.58153
   A11        1.58084  -0.00008   0.00000  -0.00062  -0.00062   1.58022
   A12        1.57849   0.00000   0.00000  -0.00001  -0.00001   1.57848
   A13        2.19625  -0.00009   0.00000  -0.00059  -0.00059   2.19566
   A14        2.19561  -0.00008   0.00000  -0.00049  -0.00049   2.19512
   A15        1.89063   0.00017   0.00000   0.00108   0.00108   1.89171
   A16        2.19797  -0.00019   0.00000  -0.00118  -0.00118   2.19679
   A17        2.19322   0.00011   0.00000   0.00067   0.00067   2.19389
   A18        1.89155   0.00008   0.00000   0.00050   0.00050   1.89205
   A19        2.20046  -0.00012   0.00000  -0.00077  -0.00077   2.19969
   A20        2.18997   0.00008   0.00000   0.00048   0.00048   2.19045
   A21        1.89218   0.00004   0.00000   0.00023   0.00023   1.89241
   A22        2.19625  -0.00009   0.00000  -0.00059  -0.00059   2.19566
   A23        2.19561  -0.00008   0.00000  -0.00049  -0.00049   2.19512
   A24        1.89063   0.00017   0.00000   0.00108   0.00108   1.89171
   A25        2.19797  -0.00019   0.00000  -0.00118  -0.00118   2.19679
   A26        2.19322   0.00011   0.00000   0.00067   0.00067   2.19389
   A27        1.89155   0.00008   0.00000   0.00050   0.00050   1.89205
   A28        2.20046  -0.00012   0.00000  -0.00077  -0.00077   2.19969
   A29        2.18997   0.00008   0.00000   0.00048   0.00048   2.19045
   A30        1.89218   0.00004   0.00000   0.00023   0.00023   1.89241
   A31        3.14159   0.00000   0.00000   0.00000   0.00000   3.14159
   A32        3.14159   0.00000   0.00000   0.00000   0.00000   3.14159
   A33        3.14159   0.00000   0.00000   0.00000   0.00000   3.14159
   A34        3.14159   0.00000   0.00000   0.00000   0.00000   3.14159
   A35        3.14159   0.00000   0.00000   0.00000   0.00000   3.14159
   A36        3.14159   0.00000   0.00000   0.00000   0.00000   3.14159
    D1       -1.40679  -0.00001   0.00000  -0.00063  -0.00063  -1.40741
    D2        1.69007  -0.00001   0.00000  -0.00060  -0.00060   1.68947
    D3       -2.98539  -0.00001   0.00000  -0.00060  -0.00060  -2.98599
    D4        0.11146  -0.00001   0.00000  -0.00058  -0.00058   0.11088
    D5        1.73481  -0.00001   0.00000  -0.00063  -0.00063   1.73418
    D6       -1.45152  -0.00001   0.00000  -0.00060  -0.00060  -1.45213
    D7        0.15620  -0.00001   0.00000  -0.00060  -0.00060   0.15560
    D8       -3.03013  -0.00001   0.00000  -0.00058  -0.00058  -3.03071
    D9        3.14159   0.00000   0.00000   0.00000   0.00000   3.14159
   D10        0.04474   0.00000   0.00000  -0.00002  -0.00002   0.04471
   D11       -0.04474   0.00000   0.00000   0.00002   0.00002  -0.04471
   D12        3.14159   0.00000   0.00000   0.00000   0.00000   3.14159
   D13        0.09691   0.00007   0.00000   0.00137   0.00137   0.09828
   D14       -3.00861   0.00007   0.00000   0.00150   0.00150  -3.00711
   D15        1.67785  -0.00002   0.00000   0.00074   0.00074   1.67859
   D16       -1.42767  -0.00002   0.00000   0.00087   0.00087  -1.42680
   D17       -3.04468   0.00007   0.00000   0.00137   0.00137  -3.04331
   D18        0.13298   0.00007   0.00000   0.00150   0.00150   0.13448
   D19       -1.46374  -0.00002   0.00000   0.00074   0.00074  -1.46300
   D20        1.71392  -0.00002   0.00000   0.00087   0.00087   1.71479
   D21        3.14159   0.00000   0.00000   0.00000   0.00000   3.14159
   D22       -0.03607   0.00000   0.00000  -0.00013  -0.00013  -0.03620
   D23        0.03607   0.00000   0.00000   0.00013   0.00013   0.03620
   D24        3.14159   0.00000   0.00000   0.00000   0.00000   3.14159
   D25       -1.42423  -0.00003   0.00000   0.00158   0.00158  -1.42266
   D26        1.67666  -0.00006   0.00000  -0.00034  -0.00034   1.67632
   D27       -3.00688   0.00011   0.00000   0.00262   0.00262  -3.00426
   D28        0.09402   0.00008   0.00000   0.00071   0.00071   0.09472
   D29        1.71736  -0.00003   0.00000   0.00158   0.00158   1.71893
   D30       -1.46493  -0.00006   0.00000  -0.00034  -0.00034  -1.46527
   D31        0.13472   0.00011   0.00000   0.00262   0.00262   0.13734
   D32       -3.04757   0.00008   0.00000   0.00071   0.00071  -3.04687
   D33        3.14159   0.00000   0.00000   0.00000   0.00000   3.14159
   D34        0.04070   0.00003   0.00000   0.00191   0.00191   0.04261
   D35       -0.04070  -0.00003   0.00000  -0.00191  -0.00191  -0.04261
   D36        3.14159   0.00000   0.00000   0.00000   0.00000   3.14159
   D37       -1.73481   0.00001   0.00000   0.00063   0.00063  -1.73418
   D38        1.45152   0.00001   0.00000   0.00060   0.00060   1.45213
   D39       -0.15620   0.00001   0.00000   0.00060   0.00060  -0.15560
   D40        3.03013   0.00001   0.00000   0.00058   0.00058   3.03071
   D41        1.40679   0.00001   0.00000   0.00063   0.00063   1.40741
   D42       -1.69007   0.00001   0.00000   0.00060   0.00060  -1.68947
   D43        2.98539   0.00001   0.00000   0.00060   0.00060   2.98599
   D44       -0.11146   0.00001   0.00000   0.00058   0.00058  -0.11088
   D45        3.04468  -0.00007   0.00000  -0.00137  -0.00137   3.04331
   D46       -0.13298  -0.00007   0.00000  -0.00150  -0.00150  -0.13448
   D47        1.46374   0.00002   0.00000  -0.00074  -0.00074   1.46300
   D48       -1.71392   0.00002   0.00000  -0.00087  -0.00087  -1.71479
   D49       -0.09691  -0.00007   0.00000  -0.00137  -0.00137  -0.09828
   D50        3.00861  -0.00007   0.00000  -0.00150  -0.00150   3.00711
   D51       -1.67785   0.00002   0.00000  -0.00074  -0.00074  -1.67859
   D52        1.42767   0.00002   0.00000  -0.00087  -0.00087   1.42680
   D53       -1.71736   0.00003   0.00000  -0.00158  -0.00158  -1.71893
   D54        1.46493   0.00006   0.00000   0.00034   0.00034   1.46527
   D55       -0.13472  -0.00011   0.00000  -0.00262  -0.00262  -0.13734
   D56        3.04757  -0.00008   0.00000  -0.00071  -0.00071   3.04687
   D57        1.42423   0.00003   0.00000  -0.00158  -0.00158   1.42266
   D58       -1.67666   0.00006   0.00000   0.00034   0.00034  -1.67632
   D59        3.00688  -0.00011   0.00000  -0.00262  -0.00262   3.00426
   D60       -0.09402  -0.00008   0.00000  -0.00071  -0.00071  -0.09472
         Item               Value     Threshold  Converged?
 Maximum Force            0.000207     0.000450     YES
 RMS     Force            0.000075     0.000300     YES
 Maximum Displacement     0.004095     0.001800     NO 
 RMS     Displacement     0.001305     0.001200     NO 
 Predicted change in Energy=-2.719305D-06
 GradGradGradGradGradGradGradGradGradGradGradGradGradGradGradGradGradGrad

[...]
    10  H    0.001011   0.000878   0.001019   0.000893   0.000491   0.000125
    11  O    0.274647  -0.061038   0.013446   0.001623  -0.060335   0.004762
    12  H    0.002086   0.004883   0.000236   0.001041   0.001645   0.001041
    13  H    0.354735   0.005044   0.000393   0.000821   0.013272   0.000252
    14  O    0.005044   7.812114   0.274847   0.282372  -0.061025   0.001659
    15  H    0.000393   0.274847   0.354191   0.001846   0.004964   0.000814
    16  H    0.000821   0.282372   0.001846   0.344854   0.004777   0.001040
    17  O    0.013272  -0.061025   0.004964   0.004777   7.812198   0.282448
    18  H    0.000252   0.001659   0.000814   0.001040   0.282448   0.344707
    19  H    0.000399   0.013388   0.000399   0.000275   0.274745   0.002155
              19
     1  Ni  -0.063518
     2  O    0.006010
     3  H    0.000257
     4  H    0.001011
     5  O    0.000878
     6  H    0.001019
     7  H    0.000893
     8  O    0.000491
     9  H    0.000125
    10  H    0.000203
    11  O    0.004948
    12  H    0.000819
    13  H    0.000399
    14  O    0.013388
    15  H    0.000399
    16  H    0.000275
    17  O    0.274745
    18  H    0.002155
    19  H    0.354383
          Atomic-Atomic Spin Densities.
               1          2          3          4          5          6
     1  Ni   2.682545  -0.054070   0.003213   0.002907  -0.054472   0.002914
     2  O   -0.054070   0.183449  -0.006222  -0.006024  -0.008788   0.000327
     3  H    0.003213  -0.006222   0.003254   0.001643   0.000873  -0.000056
     4  H    0.002907  -0.006024   0.001643   0.003556   0.000819  -0.000057
     5  O   -0.054472  -0.008788   0.000873   0.000819   0.185256  -0.006058
     6  H    0.002914   0.000327  -0.000056  -0.000057  -0.006058   0.003519
     7  H    0.003219   0.000165  -0.000026   0.000025  -0.006185   0.001635
     8  O   -0.054026  -0.008703   0.000163   0.000308  -0.008708   0.000818
     9  H    0.003216   0.000871  -0.000026  -0.000055   0.000165   0.000026
    10  H    0.002873   0.000821   0.000026  -0.000057   0.000317  -0.000057
    11  O   -0.054070   0.005882  -0.000174  -0.000146  -0.008439   0.000226
    12  H    0.003213  -0.000174   0.000001   0.000026   0.000845   0.000006
    13  H    0.002907  -0.000146   0.000026   0.000005   0.000911  -0.000005
    14  O   -0.054472  -0.008439   0.000845   0.000911   0.005905  -0.000145
    15  H    0.002914   0.000226   0.000006  -0.000005  -0.000145   0.000005
    16  H    0.003219   0.000235  -0.000115  -0.000024  -0.000175   0.000026
    17  O   -0.054026  -0.008350   0.000234   0.000227  -0.008391   0.000907
    18  H    0.003216   0.000838  -0.000115   0.000006   0.000224  -0.000023
    19  H    0.002873   0.000900  -0.000023  -0.000006   0.000226  -0.000006
               7          8          9         10         11         12
     1  Ni   0.003219  -0.054026   0.003216   0.002873  -0.054070   0.003213
     2  O    0.000165  -0.008703   0.000871   0.000821   0.005882  -0.000174
     3  H   -0.000026   0.000163  -0.000026   0.000026  -0.000174   0.000001
     4  H    0.000025   0.000308  -0.000055  -0.000057  -0.000146   0.000026
     5  O   -0.006185  -0.008708   0.000165   0.000317  -0.008439   0.000845
     6  H    0.001635   0.000818   0.000026  -0.000057   0.000226   0.000006
     7  H    0.003175   0.000871  -0.000027  -0.000055   0.000235  -0.000115
     8  O    0.000871   0.183785  -0.006146  -0.006042  -0.008350   0.000234
     9  H   -0.000027  -0.006146   0.003178   0.001640   0.000838  -0.000115
    10  H   -0.000055  -0.006042   0.001640   0.003604   0.000900  -0.000023
    11  O    0.000235  -0.008350   0.000838   0.000900   0.183449  -0.006222
    12  H   -0.000115   0.000234  -0.000115  -0.000023  -0.006222   0.003254
    13  H   -0.000024   0.000227   0.000006  -0.000006  -0.006024   0.001643
    14  O   -0.000175  -0.008391   0.000224   0.000226  -0.008788   0.000873
    15  H    0.000026   0.000907  -0.000023  -0.000006   0.000327  -0.000056
    16  H    0.000001   0.000843  -0.000116   0.000006   0.000165  -0.000026
    17  O    0.000843   0.005883  -0.000174  -0.000146  -0.008703   0.000163
    18  H   -0.000116  -0.000174   0.000000   0.000026   0.000871  -0.000026
    19  H    0.000006  -0.000146   0.000026   0.000005   0.000821   0.000026
              13         14         15         16         17         18
     1  Ni   0.002907  -0.054472   0.002914   0.003219  -0.054026   0.003216
     2  O   -0.000146  -0.008439   0.000226   0.000235  -0.008350   0.000838
     3  H    0.000026   0.000845   0.000006  -0.000115   0.000234  -0.000115
     4  H    0.000005   0.000911  -0.000005  -0.000024   0.000227   0.000006
     5  O    0.000911   0.005905  -0.000145  -0.000175  -0.008391   0.000224
     6  H   -0.000005  -0.000145   0.000005   0.000026   0.000907  -0.000023
     7  H   -0.000024  -0.000175   0.000026   0.000001   0.000843  -0.000116
     8  O    0.000227  -0.008391   0.000907   0.000843   0.005883  -0.000174
     9  H    0.000006   0.000224  -0.000023  -0.000116  -0.000174   0.000000
    10  H   -0.000006   0.000226  -0.000006   0.000006  -0.000146   0.000026
    11  O   -0.006024  -0.008788   0.000327   0.000165  -0.008703   0.000871
    12  H    0.001643   0.000873  -0.000056  -0.000026   0.000163  -0.000026
    13  H    0.003556   0.000819  -0.000057   0.000025   0.000308  -0.000055
    14  O    0.000819   0.185256  -0.006058  -0.006185  -0.008708   0.000165
    15  H   -0.000057  -0.006058   0.003519   0.001635   0.000818   0.000026
    16  H    0.000025  -0.006185   0.001635   0.003175   0.000871  -0.000027
    17  O    0.000308  -0.008708   0.000818   0.000871   0.183785  -0.006146
    18  H   -0.000055   0.000165   0.000026  -0.000027  -0.006146   0.003178
    19  H   -0.000057   0.000317  -0.000057  -0.000055  -0.006042   0.001640
              19
     1  Ni   0.002873
     2  O    0.000900
     3  H   -0.000023
     4  H   -0.000006
     5  O    0.000226
     6  H   -0.000006
     7  H    0.000006
     8  O   -0.000146
     9  H    0.000026
    10  H    0.000005
    11  O    0.000821
    12  H    0.000026
    13  H   -0.000057
    14  O    0.000317
    15  H   -0.000057
    16  H   -0.000055
    17  O   -0.006042
    18  H    0.001640
    19  H    0.003604
 Mulliken charges and spin densities:
               1          2
     1  Ni  -0.022885   2.394094
     2  O   -0.299550   0.092797
     3  H    0.401603   0.003526
     4  H    0.400909   0.004061
     5  O   -0.298553   0.094179
     6  H    0.401400   0.004002
     7  H    0.402102   0.003479
     8  O   -0.299445   0.093351
     9  H    0.401857   0.003506
    10  H    0.401120   0.004052
    11  O   -0.299550   0.092797
    12  H    0.401603   0.003526
    13  H    0.400909   0.004061
    14  O   -0.298553   0.094179
    15  H    0.401400   0.004002
    16  H    0.402102   0.003479
    17  O   -0.299445   0.093351
    18  H    0.401857   0.003506
    19  H    0.401120   0.004052
 Sum of Mulliken charges =   3.00000   3.00000
 Mulliken charges and spin densities with hydrogens summed into heavy atoms:
               1          2
     1  Ni  -0.022885   2.394094
     2  O    0.502962   0.100384
     5  O    0.504949   0.101660
     8  O    0.503532   0.100909
    11  O    0.502962   0.100384
    14  O    0.504949   0.101660
    17  O    0.503532   0.100909
 Electronic spatial extent (au):  <R**2>=            993.3951
 Charge=              3.0000 electrons
 Dipole moment (field-independent basis, Debye):
    X=              0.0000    Y=              0.0000    Z=              0.0000  Tot=              0.0000
 Quadrupole moment (field-independent basis, Debye-Ang):
   XX=             -7.0159   YY=             -6.8607   ZZ=             -6.9176
   XY=              0.6875   XZ=              0.8143   YZ=             -0.6940
 Traceless Quadrupole moment (field-independent basis, Debye-Ang):
   XX=             -0.0845   YY=              0.0707   ZZ=              0.0138
   XY=              0.6875   XZ=              0.8143   YZ=             -0.6940
 Octapole moment (field-independent basis, Debye-Ang**2):
  XXX=              0.0000  YYY=              0.0000  ZZZ=              0.0000  XYY=              0.0000
  XXY=              0.0000  XXZ=              0.0000  XZZ=              0.0000  YZZ=              0.0000
  YYZ=              0.0000  XYZ=              0.0000
 Hexadecapole moment (field-independent basis, Debye-Ang**3):
 XXXX=            -42.8920 YYYY=            -43.4359 ZZZZ=            -42.2013 XXXY=              7.0210
 XXXZ=              0.7039 YYYX=            -10.5720 YYYZ=              2.6585 ZZZX=             -2.1446
 ZZZY=              0.6772 XXYY=            -79.1704 XXZZ=            -80.4654 YYZZ=            -79.3159
 XXYZ=             -6.0690 YYXZ=              5.0380 ZZXY=              5.5181
 N-N= 7.318978433674D+02 E-N=-6.095388941289D+03  KE= 1.962737719377D+03
 Symmetry AG   KE= 1.227963462144D+03
 Symmetry AU   KE= 7.347742572335D+02
                          Isotropic Fermi Contact Couplings
        Atom                 a.u.       MegaHertz       Gauss      10(-4) cm-1
     1  Ni(61)            -1.62535     216.78311      77.35360      72.31106
     2  O(17)              0.16277     -32.88927     -11.73571     -10.97068
     3  H(1)               0.00149       2.21972       0.79205       0.74042
     4  H(1)               0.00187       2.78648       0.99428       0.92947
     5  O(17)              0.16324     -32.98515     -11.76992     -11.00266
     6  H(1)               0.00183       2.72535       0.97247       0.90908
     7  H(1)               0.00147       2.19455       0.78307       0.73202
     8  O(17)              0.16291     -32.91822     -11.74604     -10.98034
     9  H(1)               0.00149       2.22102       0.79251       0.74085
    10  H(1)               0.00187       2.78574       0.99402       0.92922
    11  O(17)              0.16277     -32.88927     -11.73571     -10.97068
    12  H(1)               0.00149       2.21972       0.79205       0.74042
    13  H(1)               0.00187       2.78648       0.99428       0.92947
    14  O(17)              0.16324     -32.98515     -11.76992     -11.00266
    15  H(1)               0.00183       2.72535       0.97247       0.90908
    16  H(1)               0.00147       2.19455       0.78307       0.73202
    17  O(17)              0.16291     -32.91822     -11.74604     -10.98034
    18  H(1)               0.00149       2.22102       0.79251       0.74085
    19  H(1)               0.00187       2.78574       0.99402       0.92922
 --------------------------------------------------------
       Center         ----  Spin Dipole Couplings  ----
                      3XX-RR        3YY-RR        3ZZ-RR
 --------------------------------------------------------
     1   Atom        0.049459     -0.068034      0.018575
     2   Atom        0.321264     -0.230832     -0.090432
     3   Atom        0.031075     -0.001558     -0.029517
     4   Atom        0.035413     -0.005870     -0.029543
     5   Atom       -0.230748     -0.088256      0.319004
     6   Atom       -0.003639     -0.029264      0.032903
     7   Atom       -0.004572     -0.029126      0.033698
     8   Atom       -0.088038      0.320255     -0.232217
     9   Atom       -0.028989      0.033144     -0.004154
    10   Atom       -0.029952      0.033290     -0.003337
    11   Atom        0.321264     -0.230832     -0.090432
    12   Atom        0.031075     -0.001558     -0.029517
    13   Atom        0.035413     -0.005870     -0.029543
    14   Atom       -0.230748     -0.088256      0.319004
    15   Atom       -0.003639     -0.029264      0.032903
    16   Atom       -0.004572     -0.029126      0.033698
    17   Atom       -0.088038      0.320255     -0.232217
    18   Atom       -0.028989      0.033144     -0.004154
    19   Atom       -0.029952      0.033290     -0.003337
 --------------------------------------------------------
                        XY            XZ            YZ
 --------------------------------------------------------
     1   Atom       -1.090504     -1.143393      1.011685
     2   Atom        0.019250     -0.009033      0.031958
     3   Atom        0.028000     -0.003108     -0.003622
     4   Atom       -0.024831      0.004468     -0.003769
     5   Atom       -0.041086     -0.008812      0.006460
     6   Atom        0.005217     -0.026761     -0.005497
     7   Atom        0.004836      0.026296      0.004787
     8   Atom       -0.022085     -0.033454      0.004865
     9   Atom       -0.006463      0.005015     -0.026188
    10   Atom        0.001176      0.002486      0.026904
    11   Atom        0.019250     -0.009033      0.031958
    12   Atom        0.028000     -0.003108     -0.003622
    13   Atom       -0.024831      0.004468     -0.003769
    14   Atom       -0.041086     -0.008812      0.006460
    15   Atom        0.005217     -0.026761     -0.005497
    16   Atom        0.004836      0.026296      0.004787
    17   Atom       -0.022085     -0.033454      0.004865
    18   Atom       -0.006463      0.005015     -0.026188
    19   Atom        0.001176      0.002486      0.026904
 --------------------------------------------------------


 ---------------------------------------------------------------------------------
              Anisotropic Spin Dipole Couplings in Principal Axis System
 ---------------------------------------------------------------------------------

       Atom             a.u.   MegaHertz   Gauss  10(-4) cm-1        Axes

              Baa    -1.1297    53.955    19.252    17.997  0.8011  0.3909  0.4533
     1 Ni(61) Bbb    -1.0373    49.541    17.678    16.525  0.0247  0.7350 -0.6776
              Bcc     2.1669  -103.496   -36.930   -34.523  0.5980 -0.5540 -0.5792
 
              Baa    -0.2385    17.260     6.159     5.757 -0.0370  0.9764 -0.2129
     2 O(17)  Bbb    -0.0836     6.046     2.157     2.017  0.0116  0.2135  0.9769
              Bcc     0.3221   -23.306    -8.316    -7.774  0.9992  0.0337 -0.0193
 
              Baa    -0.0300   -15.998    -5.709    -5.336 -0.0136  0.1395  0.9901
     3 H(1)   Bbb    -0.0174    -9.307    -3.321    -3.105 -0.5019  0.8555 -0.1275
              Bcc     0.0474    25.306     9.030     8.441  0.8648  0.4986 -0.0584
 
              Baa    -0.0301   -16.080    -5.738    -5.364 -0.0151  0.1383  0.9903
     4 H(1)   Bbb    -0.0173    -9.251    -3.301    -3.086  0.4311  0.8945 -0.1184
              Bcc     0.0475    25.331     9.039     8.449  0.9022 -0.4251  0.0731
 
              Baa    -0.2418    17.499     6.244     5.837  0.9661  0.2579  0.0122
     5 O(17)  Bbb    -0.0774     5.604     1.999     1.869 -0.2576  0.9660 -0.0215
              Bcc     0.3193   -23.102    -8.243    -7.706 -0.0173  0.0176  0.9997
 
              Baa    -0.0303   -16.160    -5.766    -5.390 -0.1854  0.9826  0.0070
     6 H(1)   Bbb    -0.0174    -9.305    -3.320    -3.104  0.8643  0.1597  0.4769
              Bcc     0.0477    25.465     9.087     8.494 -0.4675 -0.0944  0.8789
 
              Baa    -0.0300   -16.031    -5.720    -5.347 -0.1920  0.9814  0.0055
     7 H(1)   Bbb    -0.0176    -9.382    -3.348    -3.129  0.8698  0.1727 -0.4621
              Bcc     0.0476    25.412     9.068     8.477  0.4545  0.0839  0.8868
 
              Baa    -0.2396    17.337     6.186     5.783  0.2155  0.0000  0.9765
     8 O(17)  Bbb    -0.0819     5.928     2.115     1.977  0.9750  0.0561 -0.2152
              Bcc     0.3215   -23.265    -8.302    -7.761 -0.0548  0.9984  0.0121
 
              Baa    -0.0300   -16.014    -5.714    -5.342  0.9874  0.0373 -0.1537
     9 H(1)   Bbb    -0.0175    -9.324    -3.327    -3.110  0.1186  0.4682  0.8756
              Bcc     0.0475    25.339     9.041     8.452 -0.1046  0.8829 -0.4578
 
              Baa    -0.0302   -16.129    -5.755    -5.380  0.9912  0.0355 -0.1271
    10 H(1)   Bbb    -0.0174    -9.260    -3.304    -3.089  0.1289 -0.4676  0.8745
              Bcc     0.0476    25.389     9.059     8.469  0.0284  0.8832  0.4680
 
              Baa    -0.2385    17.260     6.159     5.757 -0.0370  0.9764 -0.2129
    11 O(17)  Bbb    -0.0836     6.046     2.157     2.017  0.0116  0.2135  0.9769
              Bcc     0.3221   -23.306    -8.316    -7.774  0.9992  0.0337 -0.0193
 
              Baa    -0.0300   -15.998    -5.709    -5.336 -0.0136  0.1395  0.9901
    12 H(1)   Bbb    -0.0174    -9.307    -3.321    -3.105 -0.5019  0.8555 -0.1275
              Bcc     0.0474    25.306     9.030     8.441  0.8648  0.4986 -0.0584
 
              Baa    -0.0301   -16.080    -5.738    -5.364 -0.0151  0.1383  0.9903
    13 H(1)   Bbb    -0.0173    -9.251    -3.301    -3.086  0.4311  0.8945 -0.1184
              Bcc     0.0475    25.331     9.039     8.449  0.9022 -0.4251  0.0731
 
              Baa    -0.2418    17.499     6.244     5.837  0.9661  0.2579  0.0122
    14 O(17)  Bbb    -0.0774     5.604     1.999     1.869 -0.2576  0.9660 -0.0215
              Bcc     0.3193   -23.102    -8.243    -7.706 -0.0173  0.0176  0.9997
 
              Baa    -0.0303   -16.160    -5.766    -5.390 -0.1854  0.9826  0.0070
    15 H(1)   Bbb    -0.0174    -9.305    -3.320    -3.104  0.8643  0.1597  0.4769
              Bcc     0.0477    25.465     9.087     8.494 -0.4675 -0.0944  0.8789
 
              Baa    -0.0300   -16.031    -5.720    -5.347 -0.1920  0.9814  0.0055
    16 H(1)   Bbb    -0.0176    -9.382    -3.348    -3.129  0.8698  0.1727 -0.4621
              Bcc     0.0476    25.412     9.068     8.477  0.4545  0.0839  0.8868
 
              Baa    -0.2396    17.337     6.186     5.783  0.2155  0.0000  0.9765
    17 O(17)  Bbb    -0.0819     5.928     2.115     1.977  0.9750  0.0561 -0.2152
              Bcc     0.3215   -23.265    -8.302    -7.761 -0.0548  0.9984  0.0121
 
              Baa    -0.0300   -16.014    -5.714    -5.342  0.9874  0.0373 -0.1537
    18 H(1)   Bbb    -0.0175    -9.324    -3.327    -3.110  0.1186  0.4682  0.8756
              Bcc     0.0475    25.339     9.041     8.452 -0.1046  0.8829 -0.4578
 
              Baa    -0.0302   -16.129    -5.755    -5.380  0.9912  0.0355 -0.1271
    19 H(1)   Bbb    -0.0174    -9.260    -3.304    -3.089  0.1289 -0.4676  0.8745
              Bcc     0.0476    25.389     9.059     8.469  0.0284  0.8832  0.4680
 

 ---------------------------------------------------------------------------------

 1\1\GINC-MN109\FOpt\UM062X\6-311++G(2d,2p)\H12Ni1O6(3+,4)\DARAM_A\29-J
 un-2015\0\\# opt 6-311++g(2d,2p) m062x output=wfnx scf=tight\\Ni[H2O]6
  (3+)\\3,4\Ni,0.,0.,0.\O,-1.9795537861,-0.0830446271,-0.0280456589\H,-
 2.5166791436,-0.8883990076,0.0715474611\H,-2.5798566725,0.6776099279,-
 0.1178622413\O,-0.0114081746,-0.0251650841,1.9799120843\H,-0.797206496
 2,-0.1516200112,2.5401825448\H,0.7590034056,0.1151296216,2.5576245216\
 O,-0.0630631486,1.9800787461,0.0083428468\H,-0.1983274414,2.549637558,
 -0.7690130177\H,-0.0075730586,2.5460998519,0.7981830342\O,1.9795537861
 ,0.0830446271,0.0280456589\H,2.5166791436,0.8883990076,-0.0715474611\H
 ,2.5798566725,-0.6776099279,0.1178622413\O,0.0114081746,0.0251650841,-
 1.9799120843\H,0.7972064962,0.1516200112,-2.5401825448\H,-0.7590034056
 ,-0.1151296216,-2.5576245216\O,0.0630631486,-1.9800787461,-0.008342846
 8\H,0.1983274414,-2.549637558,0.7690130177\H,0.0075730586,-2.546099851
 9,-0.7981830342\\Version=ES64L-G09RevD.01\State=4-AG\HF=-1965.6350055\
 S2=3.758077\S2-1=0.\S2A=3.750031\RMSD=7.375e-09\RMSF=2.796e-05\Dipole=
 0.,0.,0.\Quadrupole=-0.0628356,0.0525516,0.010284,0.5111517,0.6054307,
 -0.5159474\PG=CI [O(Ni1),X(H12O6)]\\@

 Writing a WFNX file to "Ni34.wfx"


 The impersonal hand of government can
 never replace the helping hand of a neighbor.
                        -- Hubert H. Humphrey
 Job cpu time:       0 days  1 hours 18 minutes 53.2 seconds.
 File lengths (MBytes):  RWF=     95 Int=      0 D2E=      0 Chk=     12 Scr=      1
 Normal termination of Gaussian 09 at Mon Jun 29 17:23:27 2015.
