 Entering Gaussian System, Link 0=g09
 Input=Zn21.com
 Output=Zn21.log
 Initial command:
 /opt/SC/aplicaciones/g09-E.01/l1.exe "/tmpu/fercor_g/daram_a/Gau-64670.inp" -scrdir="/tmpu/fercor_g/daram_a/"
 Default is to use a total of  16 processors:
                               16 via shared-memory
                                1 via Linda
 Entering Link 1 = /opt/SC/aplicaciones/g09-E.01/l1.exe PID=     64671.
  
 Copyright (c) 1988,1990,1992,1993,1995,1998,2003,2009,2015,
            Gaussian, Inc.  All Rights Reserved.
  
 This is part of the Gaussian(R) 09 program.  It is based on
 the Gaussian(R) 03 system (copyright 2003, Gaussian, Inc.),
 the Gaussian(R) 98 system (copyright 1998, Gaussian, Inc.),
 the Gaussian(R) 94 system (copyright 1995, Gaussian, Inc.),
 the Gaussian 92(TM) system (copyright 1992, Gaussian, Inc.),
 the Gaussian 90(TM) system (copyright 1990, Gaussian, Inc.),
 the Gaussian 88(TM) system (copyright 1988, Gaussian, Inc.),
 the Gaussian 86(TM) system (copyright 1986, Carnegie Mellon
 University), and the Gaussian 82(TM) system (copyright 1983,
 Carnegie Mellon University). Gaussian is a federally registered
 trademark of Gaussian, Inc.
  
 This software contains proprietary and confidential information,
 including trade secrets, belonging to Gaussian, Inc.
  
 This software is provided under written license and may be
 used, copied, transmitted, or stored only in accord with that
 written license.
  
 The following legend is applicable only to US Government
 contracts under FAR:
  
                    RESTRICTED RIGHTS LEGEND
  
 Use, reproduction and disclosure by the US Government is
 subject to restrictions as set forth in subparagraphs (a)
 and (c) of the Commercial Computer Software - Restricted
 Rights clause in FAR 52.227-19.
  
 Gaussian, Inc.
 340 Quinnipiac St., Bldg. 40, Wallingford CT 06492
  
  
 ---------------------------------------------------------------
 Warning -- This program may not be used in any manner that
 competes with the business of Gaussian, Inc. or will provide
 assistance to any competitor of Gaussian, Inc.  The licensee
 of this program is prohibited from giving any competitor of
 Gaussian, Inc. access to this program.  By using this program,
 the user acknowledges that Gaussian, Inc. is engaged in the
 business of creating and licensing software in the field of
 computational chemistry and represents and warrants to the
 licensee that it is not a competitor of Gaussian, Inc. and that
 it will not use this program in any manner prohibited above.
 ---------------------------------------------------------------
  

 Cite this work as:
 Gaussian 09, Revision E.01,
 M. J. Frisch, G. W. Trucks, H. B. Schlegel, G. E. Scuseria, 
 M. A. Robb, J. R. Cheeseman, G. Scalmani, V. Barone, B. Mennucci, 
 G. A. Petersson, H. Nakatsuji, M. Caricato, X. Li, H. P. Hratchian, 
 A. F. Izmaylov, J. Bloino, G. Zheng, J. L. Sonnenberg, M. Hada, 
 M. Ehara, K. Toyota, R. Fukuda, J. Hasegawa, M. Ishida, T. Nakajima, 
 Y. Honda, O. Kitao, H. Nakai, T. Vreven, J. A. Montgomery, Jr., 
 J. E. Peralta, F. Ogliaro, M. Bearpark, J. J. Heyd, E. Brothers, 
 K. N. Kudin, V. N. Staroverov, T. Keith, R. Kobayashi, J. Normand, 
 K. Raghavachari, A. Rendell, J. C. Burant, S. S. Iyengar, J. Tomasi, 
 M. Cossi, N. Rega, J. M. Millam, M. Klene, J. E. Knox, J. B. Cross, 
 V. Bakken, C. Adamo, J. Jaramillo, R. Gomperts, R. E. Stratmann, 
 O. Yazyev, A. J. Austin, R. Cammi, C. Pomelli, J. W. Ochterski, 
 R. L. Martin, K. Morokuma, V. G. Zakrzewski, G. A. Voth, 
 P. Salvador, J. J. Dannenberg, S. Dapprich, A. D. Daniels, 
 O. Farkas, J. B. Foresman, J. V. Ortiz, J. Cioslowski, 
 and D. J. Fox, Gaussian, Inc., Wallingford CT, 2013.
 
 ******************************************
 Gaussian 09:  ES64L-G09RevE.01 30-Nov-2015
                22-May-2017 
 ******************************************
 %nprocshared=16
 Will use up to   16 processors via shared memory.
 %mem=32GB
 %chk=Zn21.chk
 ----------------------------------------------------------------------
 # opt 6-311++g(2d,2p) um062x output=wfnx scf=tight geom=check guess=re
 ad
 ----------------------------------------------------------------------
 1/14=-1,18=20,19=15,26=3,29=2,38=1/1,3;
 2/9=110,12=2,40=1/2;
 3/5=4,6=6,7=1212,11=2,14=-4,16=1,25=1,30=1,71=1,74=-55,116=2/1,2,3;
 4/5=1/1;
 5/5=2,32=2,38=6/2;
 6/7=2,8=2,9=2,10=2,28=1/1;
 7//1,2,3,16;
 1/14=-1,18=20,19=15,26=3/3(2);
 2/9=110/2;
 99/6=200/99;
 2/9=110/2;
 3/5=4,6=6,7=1212,11=2,14=-2,16=1,25=1,30=1,71=1,74=-55,116=2/1,2,3;
 4/5=5,16=3,69=1/1;
 5/5=2,32=2,38=5/2;
 7//1,2,3,16;
 1/14=-1,18=20,19=15,26=3/3(-5);
 2/9=110/2;
 6/7=2,8=2,9=2,10=2,19=2,28=1/1;
 99/6=200,9=1/99;
 -------------
 Zn[H2O]6 (2+)
 -------------
 Structure from the checkpoint file:  "Zn21.chk"
 Charge =  2 Multiplicity = 1
 Redundant internal coordinates found in file.
 Zn,0,0.0006233818,4.2295513641,3.5353530326
 O,0,-1.451168972,3.3084804188,2.3231185378
 H,0,-1.8264366665,2.430297939,2.4552724128
 H,0,-1.8649913181,3.6914376277,1.5414737838
 O,0,1.4489125659,5.1525784753,4.7501716022
 H,0,1.8183253635,6.0332683239,4.6186724104
 H,0,1.8665672227,4.7715601922,5.5311014036
 O,0,1.5255290357,3.4292433907,2.3270530121
 H,0,2.4734207066,3.5553932154,2.4482299511
 H,0,1.4008273246,2.881693205,1.5438546345
 O,0,-0.0675816485,5.9495850556,2.3224267338
 H,0,-0.6467856539,6.7097017476,2.4486410796
 H,0,0.4692312992,6.1182622101,1.5400271264
 O,0,-1.5235585651,5.0283206603,4.7469227625
 H,0,-2.4706688108,4.8983316613,4.6244040365
 H,0,-1.4016972242,5.5787346026,5.5287171051
 O,0,0.0675935635,2.5126876589,4.75186003
 H,0,0.6514188609,1.755840203,4.6269973303
 H,0,-0.4700604651,2.3420320485,5.5335030151
 Recover connectivity data from disk.

 GradGradGradGradGradGradGradGradGradGradGradGradGradGradGradGradGradGrad
 Berny optimization.
 Initialization pass.
                           ----------------------------
                           !    Initial Parameters    !
                           ! (Angstroms and Degrees)  !
 --------------------------                            --------------------------
 ! Name  Definition              Value          Derivative Info.                !
 --------------------------------------------------------------------------------
 ! R1    R(1,2)                  2.1037         estimate D2E/DX2                !
 ! R2    R(1,5)                  2.1036         estimate D2E/DX2                !
 ! R3    R(1,8)                  2.1038         estimate D2E/DX2                !
 ! R4    R(1,11)                 2.1058         estimate D2E/DX2                !
 ! R5    R(1,14)                 2.1045         estimate D2E/DX2                !
 ! R6    R(1,17)                 2.1052         estimate D2E/DX2                !
 ! R7    R(2,3)                  0.9641         estimate D2E/DX2                !
 ! R8    R(2,4)                  0.9638         estimate D2E/DX2                !
 ! R9    R(5,6)                  0.964          estimate D2E/DX2                !
 ! R10   R(5,7)                  0.9641         estimate D2E/DX2                !
 ! R11   R(8,9)                  0.9639         estimate D2E/DX2                !
 ! R12   R(8,10)                 0.9637         estimate D2E/DX2                !
 ! R13   R(11,12)                0.9639         estimate D2E/DX2                !
 ! R14   R(11,13)                0.9637         estimate D2E/DX2                !
 ! R15   R(14,15)                0.9638         estimate D2E/DX2                !
 ! R16   R(14,16)                0.9639         estimate D2E/DX2                !
 ! R17   R(17,18)                0.964          estimate D2E/DX2                !
 ! R18   R(17,19)                0.9639         estimate D2E/DX2                !
 ! A1    A(2,1,8)               90.1549         estimate D2E/DX2                !
 ! A2    A(2,1,11)              90.1927         estimate D2E/DX2                !
 ! A3    A(2,1,14)              89.8917         estimate D2E/DX2                !
 ! A4    A(2,1,17)              89.8779         estimate D2E/DX2                !
 ! A5    A(5,1,8)               89.975          estimate D2E/DX2                !
 ! A6    A(5,1,11)              89.8012         estimate D2E/DX2                !
 ! A7    A(5,1,14)              89.9784         estimate D2E/DX2                !
 ! A8    A(5,1,17)              90.1279         estimate D2E/DX2                !
 ! A9    A(8,1,11)              90.1938         estimate D2E/DX2                !
 ! A10   A(8,1,17)              89.9193         estimate D2E/DX2                !
 ! A11   A(11,1,14)             89.8924         estimate D2E/DX2                !
 ! A12   A(14,1,17)             89.9944         estimate D2E/DX2                !
 ! A13   A(1,2,3)              126.0467         estimate D2E/DX2                !
 ! A14   A(1,2,4)              126.1345         estimate D2E/DX2                !
 ! A15   A(3,2,4)              107.817          estimate D2E/DX2                !
 ! A16   A(1,5,6)              125.8655         estimate D2E/DX2                !
 ! A17   A(1,5,7)              126.343          estimate D2E/DX2                !
 ! A18   A(6,5,7)              107.79           estimate D2E/DX2                !
 ! A19   A(1,8,9)              126.2152         estimate D2E/DX2                !
 ! A20   A(1,8,10)             126.0939         estimate D2E/DX2                !
 ! A21   A(9,8,10)             107.6843         estimate D2E/DX2                !
 ! A22   A(1,11,12)            126.0251         estimate D2E/DX2                !
 ! A23   A(1,11,13)            126.3376         estimate D2E/DX2                !
 ! A24   A(12,11,13)           107.6366         estimate D2E/DX2                !
 ! A25   A(1,14,15)            125.9669         estimate D2E/DX2                !
 ! A26   A(1,14,16)            126.3084         estimate D2E/DX2                !
 ! A27   A(15,14,16)           107.7202         estimate D2E/DX2                !
 ! A28   A(1,17,18)            125.7823         estimate D2E/DX2                !
 ! A29   A(1,17,19)            126.5277         estimate D2E/DX2                !
 ! A30   A(18,17,19)           107.6885         estimate D2E/DX2                !
 ! A31   L(2,1,5,8,-1)         180.1298         estimate D2E/DX2                !
 ! A32   L(8,1,14,2,-1)        180.0466         estimate D2E/DX2                !
 ! A33   L(11,1,17,2,-1)       180.0707         estimate D2E/DX2                !
 ! A34   L(2,1,5,8,-2)         179.9944         estimate D2E/DX2                !
 ! A35   L(8,1,14,2,-2)        179.9136         estimate D2E/DX2                !
 ! A36   L(11,1,17,2,-2)       180.1133         estimate D2E/DX2                !
 ! D1    D(8,1,2,3)             90.9045         estimate D2E/DX2                !
 ! D2    D(8,1,2,4)            -89.6442         estimate D2E/DX2                !
 ! D3    D(11,1,2,3)          -178.9012         estimate D2E/DX2                !
 ! D4    D(11,1,2,4)             0.5501         estimate D2E/DX2                !
 ! D5    D(14,1,2,3)           -89.0092         estimate D2E/DX2                !
 ! D6    D(14,1,2,4)            90.4422         estimate D2E/DX2                !
 ! D7    D(17,1,2,3)             0.9855         estimate D2E/DX2                !
 ! D8    D(17,1,2,4)          -179.5632         estimate D2E/DX2                !
 ! D9    D(3,2,5,6)           -179.5893         estimate D2E/DX2                !
 ! D10   D(3,2,5,7)              0.8231         estimate D2E/DX2                !
 ! D11   D(4,2,5,6)             -0.2327         estimate D2E/DX2                !
 ! D12   D(4,2,5,7)           -179.8203         estimate D2E/DX2                !
 ! D13   D(8,1,5,6)             89.412          estimate D2E/DX2                !
 ! D14   D(8,1,5,7)            -90.0809         estimate D2E/DX2                !
 ! D15   D(11,1,5,6)            -0.7819         estimate D2E/DX2                !
 ! D16   D(11,1,5,7)           179.7252         estimate D2E/DX2                !
 ! D17   D(14,1,5,6)           -90.6744         estimate D2E/DX2                !
 ! D18   D(14,1,5,7)            89.8327         estimate D2E/DX2                !
 ! D19   D(17,1,5,6)           179.3312         estimate D2E/DX2                !
 ! D20   D(17,1,5,7)            -0.1616         estimate D2E/DX2                !
 ! D21   D(2,1,8,9)            179.8641         estimate D2E/DX2                !
 ! D22   D(2,1,8,10)             0.9168         estimate D2E/DX2                !
 ! D23   D(5,1,8,9)             -0.1303         estimate D2E/DX2                !
 ! D24   D(5,1,8,10)          -179.0776         estimate D2E/DX2                !
 ! D25   D(11,1,8,9)            89.6708         estimate D2E/DX2                !
 ! D26   D(11,1,8,10)          -89.2765         estimate D2E/DX2                !
 ! D27   D(17,1,8,9)           -90.2582         estimate D2E/DX2                !
 ! D28   D(17,1,8,10)           90.7945         estimate D2E/DX2                !
 ! D29   D(9,8,14,15)         -179.8258         estimate D2E/DX2                !
 ! D30   D(9,8,14,16)           -0.7527         estimate D2E/DX2                !
 ! D31   D(10,8,14,15)           1.164          estimate D2E/DX2                !
 ! D32   D(10,8,14,16)        -179.7629         estimate D2E/DX2                !
 ! D33   D(2,1,11,12)           90.2874         estimate D2E/DX2                !
 ! D34   D(2,1,11,13)          -89.3759         estimate D2E/DX2                !
 ! D35   D(5,1,11,12)          -89.5828         estimate D2E/DX2                !
 ! D36   D(5,1,11,13)           90.7539         estimate D2E/DX2                !
 ! D37   D(8,1,11,12)         -179.5571         estimate D2E/DX2                !
 ! D38   D(8,1,11,13)            0.7796         estimate D2E/DX2                !
 ! D39   D(14,1,11,12)           0.396          estimate D2E/DX2                !
 ! D40   D(14,1,11,13)        -179.2673         estimate D2E/DX2                !
 ! D41   D(12,11,17,18)       -179.6039         estimate D2E/DX2                !
 ! D42   D(12,11,17,19)         -0.1472         estimate D2E/DX2                !
 ! D43   D(13,11,17,18)          0.6817         estimate D2E/DX2                !
 ! D44   D(13,11,17,19)       -179.8615         estimate D2E/DX2                !
 ! D45   D(2,1,14,15)            0.2472         estimate D2E/DX2                !
 ! D46   D(2,1,14,16)          179.3833         estimate D2E/DX2                !
 ! D47   D(5,1,14,15)         -179.7586         estimate D2E/DX2                !
 ! D48   D(5,1,14,16)           -0.6225         estimate D2E/DX2                !
 ! D49   D(11,1,14,15)          90.4402         estimate D2E/DX2                !
 ! D50   D(11,1,14,16)         -90.4238         estimate D2E/DX2                !
 ! D51   D(17,1,14,15)         -89.6307         estimate D2E/DX2                !
 ! D52   D(17,1,14,16)          89.5053         estimate D2E/DX2                !
 ! D53   D(2,1,17,18)           90.0573         estimate D2E/DX2                !
 ! D54   D(2,1,17,19)          -90.4345         estimate D2E/DX2                !
 ! D55   D(5,1,17,18)          -90.0725         estimate D2E/DX2                !
 ! D56   D(5,1,17,19)           89.4356         estimate D2E/DX2                !
 ! D57   D(8,1,17,18)           -0.0977         estimate D2E/DX2                !
 ! D58   D(8,1,17,19)          179.4104         estimate D2E/DX2                !
 ! D59   D(14,1,17,18)         179.9491         estimate D2E/DX2                !
 ! D60   D(14,1,17,19)          -0.5428         estimate D2E/DX2                !
 --------------------------------------------------------------------------------
 Trust Radius=3.00D-01 FncErr=1.00D-07 GrdErr=1.00D-06
 Number of steps in this run=    114 maximum allowed number of steps=    114.
 GradGradGradGradGradGradGradGradGradGradGradGradGradGradGradGradGradGrad

                          Input orientation:                          
 ---------------------------------------------------------------------
 Center     Atomic      Atomic             Coordinates (Angstroms)
 Number     Number       Type             X           Y           Z
 ---------------------------------------------------------------------
      1         30           0        0.000623    4.229551    3.535353
      2          8           0       -1.451169    3.308480    2.323119
      3          1           0       -1.826437    2.430298    2.455272
      4          1           0       -1.864991    3.691438    1.541474
      5          8           0        1.448913    5.152578    4.750172
      6          1           0        1.818325    6.033268    4.618672
      7          1           0        1.866567    4.771560    5.531101
      8          8           0        1.525529    3.429243    2.327053
      9          1           0        2.473421    3.555393    2.448230
     10          1           0        1.400827    2.881693    1.543855
     11          8           0       -0.067582    5.949585    2.322427
     12          1           0       -0.646786    6.709702    2.448641
     13          1           0        0.469231    6.118262    1.540027
     14          8           0       -1.523559    5.028321    4.746923
     15          1           0       -2.470669    4.898332    4.624404
     16          1           0       -1.401697    5.578735    5.528717
     17          8           0        0.067594    2.512688    4.751860
     18          1           0        0.651419    1.755840    4.626997
     19          1           0       -0.470060    2.342032    5.533503
 ---------------------------------------------------------------------
                    Distance matrix (angstroms):
                    1          2          3          4          5
     1  Zn   0.000000
     2  O    2.103707   0.000000
     3  H    2.782451   0.964103   0.000000
     4  H    2.783099   0.963781   1.557879   0.000000
     5  O    2.103641   4.207346   4.837901   4.838660   0.000000
     6  H    2.780471   4.835662   5.562912   5.340425   0.964040
     7  H    2.785414   4.841398   5.346074   5.568512   0.964086
     8  O    2.103763   2.979149   3.500001   3.490202   2.974434
     9  H    2.784071   3.934339   4.444622   4.434246   2.983212
    10  H    2.782689   2.987186   3.383737   3.364708   3.929338
    11  O    2.105792   2.981568   3.936572   2.989950   2.971350
    12  H    2.784103   3.497298   4.439022   3.378890   3.480464
    13  H    2.787140   3.492283   4.439465   3.367206   3.492470
    14  O    2.104534   2.972864   3.477516   3.489805   2.975069
    15  H    2.782191   2.977066   3.348337   3.365694   3.929832
    16  H    2.785731   3.928405   4.420308   4.435611   2.985585
    17  O    2.105230   2.972997   2.977995   3.928220   2.979441
    18  H    2.781091   3.484168   3.363191   4.427111   3.491275
    19  H    2.788705   3.493303   3.364974   4.438809   3.492168
                    6          7          8          9         10
     6  H    0.000000
     7  H    1.557807   0.000000
     8  O    3.481120   3.490566   0.000000
     9  H    3.358547   3.369188   0.963896   0.000000
    10  H    4.422808   4.436964   0.963723   1.556349   0.000000
    11  O    2.972607   3.927374   2.981635   3.493519   3.489178
    12  H    3.353114   4.424353   3.936387   4.436818   4.434524
    13  H    3.362341   4.437886   2.994327   3.377855   3.367976
    14  O    3.492070   3.489099   4.208296   4.840387   4.839389
    15  H    4.436619   4.432808   4.837938   5.566259   5.342761
    16  H    3.376881   3.366465   4.841448   5.347883   5.568420
    17  O    3.934119   2.990991   2.974112   3.490265   3.493562
    18  H    4.433749   3.374694   2.975582   3.362307   3.366738
    19  H    4.438339   3.370822   3.930105   4.433423   4.439454
                   11         12         13         14         15
    11  O    0.000000
    12  H    0.963942   0.000000
    13  H    0.963727   1.555916   0.000000
    14  O    2.974353   2.979576   3.929805   0.000000
    15  H    3.489851   3.367723   4.432226   0.963808   0.000000
    16  H    3.492519   3.366875   4.438593   0.963851   1.556737
    17  O    4.211019   4.840463   4.845343   2.976609   3.485731
    18  H    4.838957   5.565188   5.347271   3.931162   4.429751
    19  H    4.846384   5.350154   5.575844   2.990771   3.370988
                   16         17         18         19
    16  H    0.000000
    17  O    3.487544   0.000000
    18  H    4.432032   0.963982   0.000000
    19  H    3.368117   0.963930   1.556628   0.000000
 Stoichiometry    H12O6Zn(2+)
 Framework group  C1[X(H12O6Zn)]
 Deg. of freedom    51
 Full point group                 C1      NOp   1
 Largest Abelian subgroup         C1      NOp   1
 Largest concise Abelian subgroup C1      NOp   1
                         Standard orientation:                         
 ---------------------------------------------------------------------
 Center     Atomic      Atomic             Coordinates (Angstroms)
 Number     Number       Type             X           Y           Z
 ---------------------------------------------------------------------
      1         30           0        0.000068    0.000724   -0.000962
      2          8           0        1.215459   -0.766404   -1.537166
      3          1           0        2.179296   -0.755462   -1.556976
      4          1           0        0.908824   -1.197760   -2.342635
      5          8           0       -1.215295    0.763553    1.537313
      6          1           0       -2.178980    0.746213    1.556926
      7          1           0       -0.912045    1.197642    2.342960
      8          8           0       -0.071370    1.861896   -0.979100
      9          1           0       -0.541434    2.646898   -0.675936
     10          1           0        0.348969    2.078438   -1.818854
     11          8           0       -1.721214   -0.620868   -1.042676
     12          1           0       -2.159464   -1.474932   -0.954947
     13          1           0       -2.210424   -0.107303   -1.695128
     14          8           0        0.073130   -1.859577    0.980368
     15          1           0        0.546145   -2.642104    0.675681
     16          1           0       -0.348897   -2.079687    1.818492
     17          8           0        1.719540    0.619424    1.044324
     18          1           0        2.153218    1.476112    0.959062
     19          1           0        2.210753    0.106023    1.695700
 ---------------------------------------------------------------------
 Rotational constants (GHZ):      1.4634382      1.4618000      1.4587829
 Standard basis: 6-311++G(2d,2p) (5D, 7F)
 There are   369 symmetry adapted cartesian basis functions of A   symmetry.
 There are   347 symmetry adapted basis functions of A   symmetry.
   347 basis functions,   500 primitive gaussians,   369 cartesian basis functions
    44 alpha electrons       44 beta electrons
       nuclear repulsion energy       723.3238130730 Hartrees.
 NAtoms=   19 NActive=   19 NUniq=   19 SFac= 1.00D+00 NAtFMM=   60 NAOKFM=F Big=F
 Integral buffers will be    131072 words long.
 Raffenetti 2 integral format.
 Two-electron integral symmetry is turned on.
 One-electron integrals computed using PRISM.
 NBasis=   347 RedAO= T EigKep=  8.14D-05  NBF=   347
 NBsUse=   347 1.00D-06 EigRej= -1.00D+00 NBFU=   347
 Initial guess from the checkpoint file:  "Zn21.chk"
 B after Tr=     0.000000   -0.000000    0.000000
         Rot=    1.000000    0.000000    0.000000   -0.000000 Ang=   0.00 deg.
 Initial guess <Sx>= 0.0000 <Sy>= 0.0000 <Sz>= 0.0000 <S**2>= 0.0000 S= 0.0000
 Keep R1 and R2 ints in memory in canonical form, NReq=3671325250.
 Requested convergence on RMS density matrix=1.00D-08 within 128 cycles.
 Requested convergence on MAX density matrix=1.00D-06.
 Requested convergence on             energy=1.00D-06.
 No special actions if energy rises.
 SCF Done:  E(UM062X) =  -2237.41759976     A.U. after    1 cycles
            NFock=  1  Conv=0.15D-08     -V/T= 2.0014
 <Sx>= 0.0000 <Sy>= 0.0000 <Sz>= 0.0000 <S**2>=-0.0000 S=-0.0000
 <L.S>= 0.000000000000E+00
 Annihilation of the first spin contaminant:
 S**2 before annihilation     0.0000,   after     0.0000

 **********************************************************************

            Population analysis using the SCF density.

 **********************************************************************

 Orbital symmetries:
 Alpha Orbitals:
       Occupied  (A) (A) (A) (A) (A) (A) (A) (A) (A) (A) (A) (A)
                 (A) (A) (A) (A) (A) (A) (A) (A) (A) (A) (A) (A)
                 (A) (A) (A) (A) (A) (A) (A) (A) (A) (A) (A) (A)
                 (A) (A) (A) (A) (A) (A) (A) (A)
       Virtual   (A) (A) (A) (A) (A) (A) (A) (A) (A) (A) (A) (A)
                 (A) (A) (A) (A) (A) (A) (A) (A) (A) (A) (A) (A)
                 (A) (A) (A) (A) (A) (A) (A) (A) (A) (A) (A) (A)
                 (A) (A) (A) (A) (A) (A) (A) (A) (A) (A) (A) (A)
                 (A) (A) (A) (A) (A) (A) (A) (A) (A) (A) (A) (A)
                 (A) (A) (A) (A) (A) (A) (A) (A) (A) (A) (A) (A)
                 (A) (A) (A) (A) (A) (A) (A) (A) (A) (A) (A) (A)
                 (A) (A) (A) (A) (A) (A) (A) (A) (A) (A) (A) (A)
                 (A) (A) (A) (A) (A) (A) (A) (A) (A) (A) (A) (A)
                 (A) (A) (A) (A) (A) (A) (A) (A) (A) (A) (A) (A)
                 (A) (A) (A) (A) (A) (A) (A) (A) (A) (A) (A) (A)
                 (A) (A) (A) (A) (A) (A) (A) (A) (A) (A) (A) (A)
                 (A) (A) (A) (A) (A) (A) (A) (A) (A) (A) (A) (A)
                 (A) (A) (A) (A) (A) (A) (A) (A) (A) (A) (A) (A)
                 (A) (A) (A) (A) (A) (A) (A) (A) (A) (A) (A) (A)
                 (A) (A) (A) (A) (A) (A) (A) (A) (A) (A) (A) (A)
                 (A) (A) (A) (A) (A) (A) (A) (A) (A) (A) (A) (A)
                 (A) (A) (A) (A) (A) (A) (A) (A) (A) (A) (A) (A)
                 (A) (A) (A) (A) (A) (A) (A) (A) (A) (A) (A) (A)
                 (A) (A) (A) (A) (A) (A) (A) (A) (A) (A) (A) (A)
                 (A) (A) (A) (A) (A) (A) (A) (A) (A) (A) (A) (A)
                 (A) (A) (A) (A) (A) (A) (A) (A) (A) (A) (A) (A)
                 (A) (A) (A) (A) (A) (A) (A) (A) (A) (A) (A) (A)
                 (A) (A) (A) (A) (A) (A) (A) (A) (A) (A) (A) (A)
                 (A) (A) (A) (A) (A) (A) (A) (A) (A) (A) (A) (A)
                 (A) (A) (A)
 Beta  Orbitals:
       Occupied  (A) (A) (A) (A) (A) (A) (A) (A) (A) (A) (A) (A)
                 (A) (A) (A) (A) (A) (A) (A) (A) (A) (A) (A) (A)
                 (A) (A) (A) (A) (A) (A) (A) (A) (A) (A) (A) (A)
                 (A) (A) (A) (A) (A) (A) (A) (A)
       Virtual   (A) (A) (A) (A) (A) (A) (A) (A) (A) (A) (A) (A)
                 (A) (A) (A) (A) (A) (A) (A) (A) (A) (A) (A) (A)
                 (A) (A) (A) (A) (A) (A) (A) (A) (A) (A) (A) (A)
                 (A) (A) (A) (A) (A) (A) (A) (A) (A) (A) (A) (A)
                 (A) (A) (A) (A) (A) (A) (A) (A) (A) (A) (A) (A)
                 (A) (A) (A) (A) (A) (A) (A) (A) (A) (A) (A) (A)
                 (A) (A) (A) (A) (A) (A) (A) (A) (A) (A) (A) (A)
                 (A) (A) (A) (A) (A) (A) (A) (A) (A) (A) (A) (A)
                 (A) (A) (A) (A) (A) (A) (A) (A) (A) (A) (A) (A)
                 (A) (A) (A) (A) (A) (A) (A) (A) (A) (A) (A) (A)
                 (A) (A) (A) (A) (A) (A) (A) (A) (A) (A) (A) (A)
                 (A) (A) (A) (A) (A) (A) (A) (A) (A) (A) (A) (A)
                 (A) (A) (A) (A) (A) (A) (A) (A) (A) (A) (A) (A)
                 (A) (A) (A) (A) (A) (A) (A) (A) (A) (A) (A) (A)
                 (A) (A) (A) (A) (A) (A) (A) (A) (A) (A) (A) (A)
                 (A) (A) (A) (A) (A) (A) (A) (A) (A) (A) (A) (A)
                 (A) (A) (A) (A) (A) (A) (A) (A) (A) (A) (A) (A)
                 (A) (A) (A) (A) (A) (A) (A) (A) (A) (A) (A) (A)
                 (A) (A) (A) (A) (A) (A) (A) (A) (A) (A) (A) (A)
                 (A) (A) (A) (A) (A) (A) (A) (A) (A) (A) (A) (A)
                 (A) (A) (A) (A) (A) (A) (A) (A) (A) (A) (A) (A)
                 (A) (A) (A) (A) (A) (A) (A) (A) (A) (A) (A) (A)
                 (A) (A) (A) (A) (A) (A) (A) (A) (A) (A) (A) (A)
                 (A) (A) (A) (A) (A) (A) (A) (A) (A) (A) (A) (A)
                 (A) (A) (A) (A) (A) (A) (A) (A) (A) (A) (A) (A)
                 (A) (A) (A)
 The electronic state is 1-A.
 Alpha  occ. eigenvalues -- -349.65654 -43.14845 -38.15508 -38.15506 -38.15505
 Alpha  occ. eigenvalues --  -19.96324 -19.96322 -19.96307 -19.96306 -19.96291
 Alpha  occ. eigenvalues --  -19.96289  -5.36329  -3.74799  -3.74797  -3.74795
 Alpha  occ. eigenvalues --   -1.47928  -1.47134  -1.47130  -1.47118  -1.46866
 Alpha  occ. eigenvalues --   -1.46860  -0.96903  -0.96895  -0.96144  -0.96116
 Alpha  occ. eigenvalues --   -0.96103  -0.94968  -0.94951  -0.94929  -0.92802
 Alpha  occ. eigenvalues --   -0.92794  -0.92790  -0.90485  -0.84725  -0.84710
 Alpha  occ. eigenvalues --   -0.84688  -0.78346  -0.78328  -0.74138  -0.74123
 Alpha  occ. eigenvalues --   -0.74104  -0.73965  -0.73953  -0.73918
 Alpha virt. eigenvalues --   -0.29088  -0.24776  -0.24767  -0.24748  -0.21274
 Alpha virt. eigenvalues --   -0.21273  -0.19547  -0.19508  -0.19488  -0.17227
 Alpha virt. eigenvalues --   -0.17225  -0.17214  -0.16717  -0.12322  -0.12293
 Alpha virt. eigenvalues --   -0.12281  -0.11214  -0.08960  -0.08945  -0.07304
 Alpha virt. eigenvalues --   -0.07294  -0.07275  -0.06549  -0.06520  -0.06480
 Alpha virt. eigenvalues --   -0.06411  -0.04530  -0.04486  -0.04483  -0.02785
 Alpha virt. eigenvalues --   -0.02756  -0.02734  -0.02671  -0.02643  -0.02626
 Alpha virt. eigenvalues --   -0.02488  -0.02485   0.01358   0.01431   0.01456
 Alpha virt. eigenvalues --    0.02329   0.02885   0.02899   0.02923   0.05096
 Alpha virt. eigenvalues --    0.05125   0.05141   0.08901   0.16681   0.16688
 Alpha virt. eigenvalues --    0.16752   0.17649   0.17669   0.17686   0.19324
 Alpha virt. eigenvalues --    0.19362   0.19417   0.20626   0.20799   0.20874
 Alpha virt. eigenvalues --    0.31013   0.31018   0.31024   0.31997   0.32035
 Alpha virt. eigenvalues --    0.35575   0.35605   0.35646   0.35753   0.35782
 Alpha virt. eigenvalues --    0.35806   0.36618   0.38182   0.40746   0.40758
 Alpha virt. eigenvalues --    0.44129   0.44169   0.44309   0.48532   0.48577
 Alpha virt. eigenvalues --    0.56250   0.56378   0.56420   0.62593   0.62652
 Alpha virt. eigenvalues --    0.62696   0.65003   0.65246   0.65419   0.65552
 Alpha virt. eigenvalues --    0.67672   0.67713   0.67901   0.67967   0.68090
 Alpha virt. eigenvalues --    0.72513   0.72588   0.72659   0.74797   0.74976
 Alpha virt. eigenvalues --    0.75143   0.84275   0.84938   0.84984   0.85114
 Alpha virt. eigenvalues --    0.90469   0.90568   0.90609   0.99531   0.99787
 Alpha virt. eigenvalues --    1.00026   1.00131   1.00328   1.00484   1.01575
 Alpha virt. eigenvalues --    1.01654   1.12864   1.12929   1.18029   1.18067
 Alpha virt. eigenvalues --    1.18091   1.18102   1.18140   1.18178   1.20401
 Alpha virt. eigenvalues --    1.20438   1.20465   1.21957   1.38626   1.38763
 Alpha virt. eigenvalues --    1.38914   1.43198   1.44510   1.44517   1.48602
 Alpha virt. eigenvalues --    1.48666   1.48712   1.49012   1.49250   1.49462
 Alpha virt. eigenvalues --    1.49547   1.50554   1.50568   1.58503   1.58628
 Alpha virt. eigenvalues --    1.58718   1.60321   1.60427   1.64272   1.64475
 Alpha virt. eigenvalues --    1.64658   1.75895   1.87749   1.87880   1.87934
 Alpha virt. eigenvalues --    1.93753   1.93797   1.93953   1.95125   1.95150
 Alpha virt. eigenvalues --    1.97094   1.97262   1.97377   2.07033   2.09883
 Alpha virt. eigenvalues --    2.17998   2.18609   2.18827   2.18910   2.19020
 Alpha virt. eigenvalues --    2.19144   2.23577   2.23731   2.24268   2.24292
 Alpha virt. eigenvalues --    2.24371   2.27926   2.40276   2.40350   2.40431
 Alpha virt. eigenvalues --    2.50376   2.50479   2.61856   2.62031   2.62081
 Alpha virt. eigenvalues --    2.64802   2.64948   2.65059   2.84547   2.84701
 Alpha virt. eigenvalues --    2.84843   3.39654   3.41912   3.41938   3.42898
 Alpha virt. eigenvalues --    3.43088   3.43213   3.52120   3.52177   3.52261
 Alpha virt. eigenvalues --    3.52921   3.53016   3.53237   3.57728   3.57797
 Alpha virt. eigenvalues --    3.57841   3.59741   3.59751   3.59817   3.76078
 Alpha virt. eigenvalues --    3.82552   3.82591   3.82648   3.84785   3.84817
 Alpha virt. eigenvalues --    3.84832   3.86681   3.86757   3.86814   3.86895
 Alpha virt. eigenvalues --    3.86980   3.96222   3.96259   3.96298   3.96316
 Alpha virt. eigenvalues --    4.03485   4.03556   4.41905   4.89599   4.89635
 Alpha virt. eigenvalues --    4.89645   4.91336   4.91451   4.91583   5.43900
 Alpha virt. eigenvalues --    5.46266   5.46402   5.46558   5.52727   5.52833
 Alpha virt. eigenvalues --    5.93828   5.93882   5.93988   5.95781   5.95846
 Alpha virt. eigenvalues --    5.95892   6.52637   6.52684   6.52729   6.53994
 Alpha virt. eigenvalues --    6.54050   6.54057   6.55713   6.55902   6.55947
 Alpha virt. eigenvalues --    6.67527   6.67704   6.67834   6.69084   6.69128
 Alpha virt. eigenvalues --    6.80273   6.80335   6.80420   6.81003   6.94123
 Alpha virt. eigenvalues --    6.94173   6.94191   6.97109   7.02374   7.02421
 Alpha virt. eigenvalues --    7.11968   7.12103   7.12150   7.12986   7.13062
 Alpha virt. eigenvalues --    7.13169   7.85075   7.85129   7.85167   8.13565
 Alpha virt. eigenvalues --    8.13691   8.71029   8.77970   8.77993   8.78011
 Alpha virt. eigenvalues --    8.97476   8.97598   8.97673  10.56270  10.56380
 Alpha virt. eigenvalues --   10.56516  34.83810  44.75328  44.75411  44.75516
 Alpha virt. eigenvalues --   49.76050  49.76087  49.76131  49.77050  49.77062
 Alpha virt. eigenvalues --   49.78767 188.27759 979.42808
  Beta  occ. eigenvalues -- -349.65654 -43.14845 -38.15508 -38.15506 -38.15505
  Beta  occ. eigenvalues --  -19.96324 -19.96322 -19.96307 -19.96306 -19.96291
  Beta  occ. eigenvalues --  -19.96289  -5.36329  -3.74799  -3.74797  -3.74795
  Beta  occ. eigenvalues --   -1.47928  -1.47134  -1.47130  -1.47118  -1.46866
  Beta  occ. eigenvalues --   -1.46860  -0.96903  -0.96895  -0.96144  -0.96116
  Beta  occ. eigenvalues --   -0.96103  -0.94968  -0.94951  -0.94929  -0.92802
  Beta  occ. eigenvalues --   -0.92794  -0.92790  -0.90485  -0.84725  -0.84710
  Beta  occ. eigenvalues --   -0.84688  -0.78346  -0.78328  -0.74138  -0.74123
  Beta  occ. eigenvalues --   -0.74104  -0.73965  -0.73953  -0.73918
  Beta virt. eigenvalues --   -0.29088  -0.24776  -0.24767  -0.24748  -0.21274
  Beta virt. eigenvalues --   -0.21273  -0.19547  -0.19508  -0.19488  -0.17227
  Beta virt. eigenvalues --   -0.17225  -0.17214  -0.16717  -0.12322  -0.12293
  Beta virt. eigenvalues --   -0.12281  -0.11214  -0.08960  -0.08945  -0.07304
  Beta virt. eigenvalues --   -0.07294  -0.07275  -0.06549  -0.06520  -0.06480
  Beta virt. eigenvalues --   -0.06411  -0.04530  -0.04486  -0.04483  -0.02785
  Beta virt. eigenvalues --   -0.02756  -0.02734  -0.02671  -0.02643  -0.02626
  Beta virt. eigenvalues --   -0.02488  -0.02485   0.01358   0.01431   0.01456
  Beta virt. eigenvalues --    0.02329   0.02885   0.02899   0.02923   0.05096
  Beta virt. eigenvalues --    0.05125   0.05141   0.08901   0.16681   0.16688
  Beta virt. eigenvalues --    0.16752   0.17649   0.17669   0.17686   0.19324
  Beta virt. eigenvalues --    0.19362   0.19417   0.20626   0.20799   0.20874
  Beta virt. eigenvalues --    0.31013   0.31018   0.31024   0.31997   0.32035
  Beta virt. eigenvalues --    0.35575   0.35605   0.35646   0.35753   0.35782
  Beta virt. eigenvalues --    0.35806   0.36618   0.38182   0.40746   0.40758
  Beta virt. eigenvalues --    0.44129   0.44169   0.44309   0.48532   0.48577
  Beta virt. eigenvalues --    0.56250   0.56378   0.56420   0.62593   0.62652
  Beta virt. eigenvalues --    0.62696   0.65003   0.65246   0.65419   0.65552
  Beta virt. eigenvalues --    0.67672   0.67713   0.67901   0.67967   0.68090
  Beta virt. eigenvalues --    0.72513   0.72588   0.72659   0.74797   0.74976
  Beta virt. eigenvalues --    0.75143   0.84275   0.84938   0.84984   0.85114
  Beta virt. eigenvalues --    0.90469   0.90568   0.90609   0.99531   0.99787
  Beta virt. eigenvalues --    1.00026   1.00131   1.00328   1.00484   1.01575
  Beta virt. eigenvalues --    1.01654   1.12864   1.12929   1.18029   1.18067
  Beta virt. eigenvalues --    1.18091   1.18102   1.18140   1.18178   1.20401
  Beta virt. eigenvalues --    1.20438   1.20465   1.21957   1.38626   1.38763
  Beta virt. eigenvalues --    1.38914   1.43198   1.44510   1.44517   1.48602
  Beta virt. eigenvalues --    1.48666   1.48712   1.49012   1.49250   1.49462
  Beta virt. eigenvalues --    1.49547   1.50554   1.50568   1.58503   1.58628
  Beta virt. eigenvalues --    1.58718   1.60321   1.60427   1.64272   1.64475
  Beta virt. eigenvalues --    1.64658   1.75895   1.87749   1.87880   1.87934
  Beta virt. eigenvalues --    1.93753   1.93797   1.93953   1.95125   1.95150
  Beta virt. eigenvalues --    1.97094   1.97262   1.97377   2.07033   2.09883
  Beta virt. eigenvalues --    2.17998   2.18609   2.18827   2.18910   2.19020
  Beta virt. eigenvalues --    2.19144   2.23577   2.23731   2.24268   2.24292
  Beta virt. eigenvalues --    2.24371   2.27926   2.40276   2.40350   2.40431
  Beta virt. eigenvalues --    2.50376   2.50479   2.61856   2.62031   2.62081
  Beta virt. eigenvalues --    2.64802   2.64948   2.65059   2.84547   2.84701
  Beta virt. eigenvalues --    2.84843   3.39654   3.41912   3.41938   3.42898
  Beta virt. eigenvalues --    3.43088   3.43213   3.52120   3.52177   3.52261
  Beta virt. eigenvalues --    3.52921   3.53016   3.53237   3.57728   3.57797
  Beta virt. eigenvalues --    3.57841   3.59741   3.59751   3.59817   3.76078
  Beta virt. eigenvalues --    3.82552   3.82591   3.82648   3.84785   3.84817
  Beta virt. eigenvalues --    3.84832   3.86681   3.86757   3.86814   3.86895
  Beta virt. eigenvalues --    3.86980   3.96222   3.96259   3.96298   3.96316
  Beta virt. eigenvalues --    4.03485   4.03556   4.41905   4.89599   4.89635
  Beta virt. eigenvalues --    4.89645   4.91336   4.91451   4.91583   5.43900
  Beta virt. eigenvalues --    5.46266   5.46402   5.46558   5.52727   5.52833
  Beta virt. eigenvalues --    5.93828   5.93882   5.93988   5.95781   5.95846
  Beta virt. eigenvalues --    5.95892   6.52637   6.52684   6.52729   6.53994
  Beta virt. eigenvalues --    6.54050   6.54057   6.55713   6.55902   6.55947
  Beta virt. eigenvalues --    6.67527   6.67704   6.67834   6.69084   6.69128
  Beta virt. eigenvalues --    6.80273   6.80335   6.80420   6.81003   6.94123
  Beta virt. eigenvalues --    6.94173   6.94191   6.97109   7.02374   7.02421
  Beta virt. eigenvalues --    7.11968   7.12103   7.12150   7.12986   7.13062
  Beta virt. eigenvalues --    7.13169   7.85075   7.85129   7.85167   8.13565
  Beta virt. eigenvalues --    8.13691   8.71029   8.77970   8.77993   8.78011
  Beta virt. eigenvalues --    8.97476   8.97598   8.97673  10.56270  10.56380
  Beta virt. eigenvalues --   10.56516  34.83810  44.75328  44.75411  44.75516
  Beta virt. eigenvalues --   49.76050  49.76087  49.76131  49.77050  49.77062
  Beta virt. eigenvalues --   49.78767 188.27759 979.42808
          Condensed to atoms (all electrons):
               1          2          3          4          5          6
     1  Zn  29.431068   0.152721  -0.020456  -0.019786   0.152452  -0.020419
     2  O    0.152721   7.745306   0.272947   0.273116   0.006331  -0.000019
     3  H   -0.020456   0.272947   0.395979  -0.003815  -0.000017   0.000013
     4  H   -0.019786   0.273116  -0.003815   0.395444  -0.000033  -0.000141
     5  O    0.152452   0.006331  -0.000017  -0.000033   7.745858   0.272965
     6  H   -0.020419  -0.000019   0.000013  -0.000141   0.272965   0.396198
     7  H   -0.019667  -0.000031  -0.000141   0.000013   0.273043  -0.003790
     8  O    0.152866  -0.030725   0.001383   0.001338  -0.031098   0.001399
     9  H   -0.020210   0.000754   0.000143   0.000148   0.005811  -0.000731
    10  H   -0.020152   0.005682  -0.000690  -0.000715   0.000768   0.000155
    11  O    0.152499  -0.030401   0.000765   0.005678  -0.031371   0.005919
    12  H   -0.020248   0.001353   0.000144  -0.000704   0.001438  -0.000733
    13  H   -0.019847   0.001347   0.000147  -0.000708   0.001339  -0.000696
    14  O    0.152228  -0.031272   0.001412   0.001332  -0.030914   0.001402
    15  H   -0.020096   0.005925  -0.000736  -0.000706   0.000770   0.000144
    16  H   -0.019863   0.000757   0.000155   0.000146   0.005681  -0.000705
    17  O    0.151948  -0.031197   0.005833   0.000751  -0.030494   0.000783
    18  H   -0.020145   0.001435  -0.000732   0.000148   0.001368   0.000146
    19  H   -0.019723   0.001330  -0.000693   0.000146   0.001311   0.000144
               7          8          9         10         11         12
     1  Zn  -0.019667   0.152866  -0.020210  -0.020152   0.152499  -0.020248
     2  O   -0.000031  -0.030725   0.000754   0.005682  -0.030401   0.001353
     3  H   -0.000141   0.001383   0.000143  -0.000690   0.000765   0.000144
     4  H    0.000013   0.001338   0.000148  -0.000715   0.005678  -0.000704
     5  O    0.273043  -0.031098   0.005811   0.000768  -0.031371   0.001438
     6  H   -0.003790   0.001399  -0.000731   0.000155   0.005919  -0.000733
     7  H    0.395276   0.001332  -0.000704   0.000148   0.000745   0.000149
     8  O    0.001332   7.744779   0.272884   0.272959  -0.030155   0.000761
     9  H   -0.000704   0.272884   0.395960  -0.003721   0.001334   0.000143
    10  H    0.000148   0.272959  -0.003721   0.396024   0.001323   0.000141
    11  O    0.000745  -0.030155   0.001334   0.001323   7.746215   0.272724
    12  H    0.000149   0.000761   0.000143   0.000141   0.272724   0.395820
    13  H    0.000147   0.005651  -0.000712  -0.000706   0.272950  -0.003751
    14  O    0.001315   0.006305  -0.000020  -0.000033  -0.031054   0.005782
    15  H    0.000145  -0.000020   0.000013  -0.000142   0.001402  -0.000718
    16  H   -0.000710  -0.000030  -0.000141   0.000012   0.001351  -0.000699
    17  O    0.005690  -0.031259   0.001413   0.001374   0.006283  -0.000016
    18  H   -0.000716   0.005846  -0.000714  -0.000699  -0.000017   0.000011
    19  H   -0.000701   0.000740   0.000149   0.000155  -0.000033  -0.000141
              13         14         15         16         17         18
     1  Zn  -0.019847   0.152228  -0.020096  -0.019863   0.151948  -0.020145
     2  O    0.001347  -0.031272   0.005925   0.000757  -0.031197   0.001435
     3  H    0.000147   0.001412  -0.000736   0.000155   0.005833  -0.000732
     4  H   -0.000708   0.001332  -0.000706   0.000146   0.000751   0.000148
     5  O    0.001339  -0.030914   0.000770   0.005681  -0.030494   0.001368
     6  H   -0.000696   0.001402   0.000144  -0.000705   0.000783   0.000146
     7  H    0.000147   0.001315   0.000145  -0.000710   0.005690  -0.000716
     8  O    0.005651   0.006305  -0.000020  -0.000030  -0.031259   0.005846
     9  H   -0.000712  -0.000020   0.000013  -0.000141   0.001413  -0.000714
    10  H   -0.000706  -0.000033  -0.000142   0.000012   0.001374  -0.000699
    11  O    0.272950  -0.031054   0.001402   0.001351   0.006283  -0.000017
    12  H   -0.003751   0.005782  -0.000718  -0.000699  -0.000016   0.000011
    13  H    0.396159   0.000739   0.000148   0.000155  -0.000030  -0.000140
    14  O    0.000739   7.746162   0.272947   0.273011  -0.030446   0.000773
    15  H    0.000148   0.272947   0.396123  -0.003743   0.001372   0.000145
    16  H    0.000155   0.273011  -0.003743   0.395613   0.001300   0.000139
    17  O   -0.000030  -0.030446   0.001372   0.001300   7.746689   0.272794
    18  H   -0.000140   0.000773   0.000145   0.000139   0.272794   0.395938
    19  H    0.000014   0.005679  -0.000728  -0.000706   0.273064  -0.003790
              19
     1  Zn  -0.019723
     2  O    0.001330
     3  H   -0.000693
     4  H    0.000146
     5  O    0.001311
     6  H    0.000144
     7  H   -0.000701
     8  O    0.000740
     9  H    0.000149
    10  H    0.000155
    11  O   -0.000033
    12  H   -0.000141
    13  H    0.000014
    14  O    0.005679
    15  H   -0.000728
    16  H   -0.000706
    17  O    0.273064
    18  H   -0.003790
    19  H    0.395760
          Atomic-Atomic Spin Densities.
               1          2          3          4          5          6
     1  Zn   0.000000   0.000000   0.000000   0.000000   0.000000   0.000000
     2  O    0.000000   0.000000   0.000000   0.000000   0.000000   0.000000
     3  H    0.000000   0.000000   0.000000   0.000000   0.000000   0.000000
     4  H    0.000000   0.000000   0.000000   0.000000   0.000000   0.000000
     5  O    0.000000   0.000000   0.000000   0.000000   0.000000   0.000000
     6  H    0.000000   0.000000   0.000000   0.000000   0.000000   0.000000
     7  H    0.000000   0.000000   0.000000   0.000000   0.000000   0.000000
     8  O    0.000000   0.000000   0.000000   0.000000   0.000000   0.000000
     9  H    0.000000   0.000000   0.000000   0.000000   0.000000   0.000000
    10  H    0.000000   0.000000   0.000000   0.000000   0.000000   0.000000
    11  O    0.000000   0.000000   0.000000   0.000000   0.000000   0.000000
    12  H    0.000000   0.000000   0.000000   0.000000   0.000000   0.000000
    13  H    0.000000   0.000000   0.000000   0.000000   0.000000   0.000000
    14  O    0.000000   0.000000   0.000000   0.000000   0.000000   0.000000
    15  H    0.000000   0.000000   0.000000   0.000000   0.000000   0.000000
    16  H    0.000000   0.000000   0.000000   0.000000   0.000000   0.000000
    17  O    0.000000   0.000000   0.000000   0.000000   0.000000   0.000000
    18  H    0.000000   0.000000   0.000000   0.000000   0.000000   0.000000
    19  H    0.000000   0.000000   0.000000   0.000000   0.000000   0.000000
               7          8          9         10         11         12
     1  Zn   0.000000   0.000000   0.000000   0.000000   0.000000   0.000000
     2  O    0.000000   0.000000   0.000000   0.000000   0.000000   0.000000
     3  H    0.000000   0.000000   0.000000   0.000000   0.000000   0.000000
     4  H    0.000000   0.000000   0.000000   0.000000   0.000000   0.000000
     5  O    0.000000   0.000000   0.000000   0.000000   0.000000   0.000000
     6  H    0.000000   0.000000   0.000000   0.000000   0.000000   0.000000
     7  H    0.000000   0.000000   0.000000   0.000000   0.000000   0.000000
     8  O    0.000000   0.000000   0.000000   0.000000   0.000000   0.000000
     9  H    0.000000   0.000000   0.000000   0.000000   0.000000   0.000000
    10  H    0.000000   0.000000   0.000000   0.000000   0.000000   0.000000
    11  O    0.000000   0.000000   0.000000   0.000000   0.000000   0.000000
    12  H    0.000000   0.000000   0.000000   0.000000   0.000000   0.000000
    13  H    0.000000   0.000000   0.000000   0.000000   0.000000   0.000000
    14  O    0.000000   0.000000   0.000000   0.000000   0.000000   0.000000
    15  H    0.000000   0.000000   0.000000   0.000000   0.000000   0.000000
    16  H    0.000000   0.000000   0.000000   0.000000   0.000000   0.000000
    17  O    0.000000   0.000000   0.000000   0.000000   0.000000   0.000000
    18  H    0.000000   0.000000   0.000000   0.000000   0.000000   0.000000
    19  H    0.000000   0.000000   0.000000   0.000000   0.000000   0.000000
              13         14         15         16         17         18
     1  Zn   0.000000   0.000000   0.000000   0.000000   0.000000   0.000000
     2  O    0.000000   0.000000   0.000000   0.000000   0.000000   0.000000
     3  H    0.000000   0.000000   0.000000   0.000000   0.000000   0.000000
     4  H    0.000000   0.000000   0.000000   0.000000   0.000000   0.000000
     5  O    0.000000   0.000000   0.000000   0.000000   0.000000   0.000000
     6  H    0.000000   0.000000   0.000000   0.000000   0.000000   0.000000
     7  H    0.000000   0.000000   0.000000   0.000000   0.000000   0.000000
     8  O    0.000000   0.000000   0.000000   0.000000   0.000000   0.000000
     9  H    0.000000   0.000000   0.000000   0.000000   0.000000   0.000000
    10  H    0.000000   0.000000   0.000000   0.000000   0.000000   0.000000
    11  O    0.000000   0.000000   0.000000   0.000000   0.000000   0.000000
    12  H    0.000000   0.000000   0.000000   0.000000   0.000000   0.000000
    13  H    0.000000   0.000000   0.000000   0.000000   0.000000   0.000000
    14  O    0.000000   0.000000   0.000000   0.000000   0.000000   0.000000
    15  H    0.000000   0.000000   0.000000   0.000000   0.000000   0.000000
    16  H    0.000000   0.000000   0.000000   0.000000   0.000000   0.000000
    17  O    0.000000   0.000000   0.000000   0.000000   0.000000   0.000000
    18  H    0.000000   0.000000   0.000000   0.000000   0.000000   0.000000
    19  H    0.000000   0.000000   0.000000   0.000000   0.000000   0.000000
              19
     1  Zn   0.000000
     2  O    0.000000
     3  H    0.000000
     4  H    0.000000
     5  O    0.000000
     6  H    0.000000
     7  H    0.000000
     8  O    0.000000
     9  H    0.000000
    10  H    0.000000
    11  O    0.000000
    12  H    0.000000
    13  H    0.000000
    14  O    0.000000
    15  H    0.000000
    16  H    0.000000
    17  O    0.000000
    18  H    0.000000
    19  H    0.000000
 Mulliken charges and spin densities:
               1          2
     1  Zn  -0.105170   0.000000
     2  O   -0.345361   0.000000
     3  H    0.348359   0.000000
     4  H    0.348349   0.000000
     5  O   -0.345207   0.000000
     6  H    0.347966   0.000000
     7  H    0.348456   0.000000
     8  O   -0.344955   0.000000
     9  H    0.348200   0.000000
    10  H    0.348116   0.000000
    11  O   -0.346158   0.000000
    12  H    0.348543   0.000000
    13  H    0.347795   0.000000
    14  O   -0.345350   0.000000
    15  H    0.347756   0.000000
    16  H    0.348279   0.000000
    17  O   -0.345852   0.000000
    18  H    0.348211   0.000000
    19  H    0.348023   0.000000
 Sum of Mulliken charges =   2.00000   0.00000
 Mulliken charges and spin densities with hydrogens summed into heavy atoms:
               1          2
     1  Zn  -0.105170   0.000000
     2  O    0.351348   0.000000
     5  O    0.351215   0.000000
     8  O    0.351361   0.000000
    11  O    0.350179   0.000000
    14  O    0.350685   0.000000
    17  O    0.350382   0.000000
 Electronic spatial extent (au):  <R**2>=           1124.2549
 Charge=              2.0000 electrons
 Dipole moment (field-independent basis, Debye):
    X=             -0.0065    Y=              0.0010    Z=             -0.0071  Tot=              0.0097
 Quadrupole moment (field-independent basis, Debye-Ang):
   XX=            -14.7795   YY=            -14.8333   ZZ=            -14.7847
   XY=             -0.1210   XZ=              0.0943   YZ=             -0.0105
 Traceless Quadrupole moment (field-independent basis, Debye-Ang):
   XX=              0.0197   YY=             -0.0341   ZZ=              0.0144
   XY=             -0.1210   XZ=              0.0943   YZ=             -0.0105
 Octapole moment (field-independent basis, Debye-Ang**2):
  XXX=             -0.1088  YYY=              0.1896  ZZZ=             -0.0430  XYY=              0.0473
  XXY=             -0.1918  XXZ=              0.0210  XZZ=             -0.0160  YZZ=              0.0197
  YYZ=             -0.0088  XYZ=              0.0502
 Hexadecapole moment (field-independent basis, Debye-Ang**3):
 XXXX=           -197.4929 YYYY=           -182.0110 ZZZZ=           -226.1906 XXXY=             17.4181
 XXXZ=             25.7785 YYYX=             -6.6356 YYYZ=            -53.7042 ZZZX=            -22.9450
 ZZZY=             16.9325 XXYY=            -81.5801 XXZZ=            -35.2084 YYZZ=            -50.4623
 XXYZ=             36.5988 YYXZ=             -1.5896 ZZXY=            -11.9186
 N-N= 7.233238130730D+02 E-N=-6.762305772952D+03  KE= 2.234229440835D+03
                          Isotropic Fermi Contact Couplings
        Atom                 a.u.       MegaHertz       Gauss      10(-4) cm-1
     1  Zn(67)             0.00000       0.00000       0.00000       0.00000
     2  O(17)              0.00000      -0.00000      -0.00000      -0.00000
     3  H(1)               0.00000       0.00000       0.00000       0.00000
     4  H(1)               0.00000       0.00000       0.00000       0.00000
     5  O(17)              0.00000      -0.00000      -0.00000      -0.00000
     6  H(1)               0.00000       0.00000       0.00000       0.00000
     7  H(1)               0.00000       0.00000       0.00000       0.00000
     8  O(17)              0.00000      -0.00000      -0.00000      -0.00000
     9  H(1)               0.00000       0.00000       0.00000       0.00000
    10  H(1)               0.00000       0.00000       0.00000       0.00000
    11  O(17)              0.00000      -0.00000      -0.00000      -0.00000
    12  H(1)               0.00000       0.00000       0.00000       0.00000
    13  H(1)               0.00000       0.00000       0.00000       0.00000
    14  O(17)              0.00000      -0.00000      -0.00000      -0.00000
    15  H(1)               0.00000       0.00000       0.00000       0.00000
    16  H(1)               0.00000       0.00000       0.00000       0.00000
    17  O(17)              0.00000      -0.00000      -0.00000      -0.00000
    18  H(1)               0.00000       0.00000       0.00000       0.00000
    19  H(1)               0.00000       0.00000       0.00000       0.00000
 --------------------------------------------------------
       Center         ----  Spin Dipole Couplings  ----
                      3XX-RR        3YY-RR        3ZZ-RR
 --------------------------------------------------------
     1   Atom        0.000000      0.000000      0.000000
     2   Atom        0.000000      0.000000      0.000000
     3   Atom        0.000000      0.000000      0.000000
     4   Atom        0.000000      0.000000      0.000000
     5   Atom        0.000000      0.000000      0.000000
     6   Atom        0.000000      0.000000      0.000000
     7   Atom        0.000000      0.000000      0.000000
     8   Atom        0.000000      0.000000      0.000000
     9   Atom        0.000000      0.000000      0.000000
    10   Atom        0.000000      0.000000      0.000000
    11   Atom        0.000000      0.000000      0.000000
    12   Atom        0.000000      0.000000      0.000000
    13   Atom        0.000000      0.000000      0.000000
    14   Atom        0.000000      0.000000      0.000000
    15   Atom        0.000000      0.000000      0.000000
    16   Atom        0.000000      0.000000      0.000000
    17   Atom        0.000000      0.000000      0.000000
    18   Atom        0.000000      0.000000      0.000000
    19   Atom        0.000000      0.000000      0.000000
 --------------------------------------------------------
                        XY            XZ            YZ
 --------------------------------------------------------
     1   Atom        0.000000      0.000000      0.000000
     2   Atom        0.000000      0.000000      0.000000
     3   Atom        0.000000      0.000000      0.000000
     4   Atom        0.000000      0.000000      0.000000
     5   Atom        0.000000      0.000000      0.000000
     6   Atom        0.000000      0.000000      0.000000
     7   Atom        0.000000      0.000000      0.000000
     8   Atom        0.000000      0.000000      0.000000
     9   Atom        0.000000      0.000000      0.000000
    10   Atom        0.000000      0.000000      0.000000
    11   Atom        0.000000      0.000000      0.000000
    12   Atom        0.000000      0.000000      0.000000
    13   Atom        0.000000      0.000000      0.000000
    14   Atom        0.000000      0.000000      0.000000
    15   Atom        0.000000      0.000000      0.000000
    16   Atom        0.000000      0.000000      0.000000
    17   Atom        0.000000      0.000000      0.000000
    18   Atom        0.000000      0.000000      0.000000
    19   Atom        0.000000      0.000000      0.000000
 --------------------------------------------------------


 ---------------------------------------------------------------------------------
              Anisotropic Spin Dipole Couplings in Principal Axis System
 ---------------------------------------------------------------------------------

       Atom             a.u.   MegaHertz   Gauss  10(-4) cm-1        Axes

              Baa     0.0000     0.000     0.000     0.000  1.0000  0.0000  0.0000
     1 Zn(67) Bbb     0.0000     0.000     0.000     0.000 -0.0000  1.0000  0.0000
              Bcc     0.0000     0.000     0.000     0.000  0.0000  0.0000  1.0000
 
              Baa     0.0000    -0.000    -0.000    -0.000  1.0000  0.0000  0.0000
     2 O(17)  Bbb     0.0000    -0.000    -0.000    -0.000 -0.0000  1.0000  0.0000
              Bcc     0.0000    -0.000    -0.000    -0.000  0.0000  0.0000  1.0000
 
              Baa     0.0000     0.000     0.000     0.000  1.0000  0.0000  0.0000
     3 H(1)   Bbb     0.0000     0.000     0.000     0.000 -0.0000  1.0000  0.0000
              Bcc     0.0000     0.000     0.000     0.000  0.0000  0.0000  1.0000
 
              Baa     0.0000     0.000     0.000     0.000  1.0000  0.0000  0.0000
     4 H(1)   Bbb     0.0000     0.000     0.000     0.000 -0.0000  1.0000  0.0000
              Bcc     0.0000     0.000     0.000     0.000  0.0000  0.0000  1.0000
 
              Baa     0.0000    -0.000    -0.000    -0.000  1.0000  0.0000  0.0000
     5 O(17)  Bbb     0.0000    -0.000    -0.000    -0.000 -0.0000  1.0000  0.0000
              Bcc     0.0000    -0.000    -0.000    -0.000  0.0000  0.0000  1.0000
 
              Baa     0.0000     0.000     0.000     0.000  1.0000  0.0000  0.0000
     6 H(1)   Bbb     0.0000     0.000     0.000     0.000 -0.0000  1.0000  0.0000
              Bcc     0.0000     0.000     0.000     0.000  0.0000  0.0000  1.0000
 
              Baa     0.0000     0.000     0.000     0.000  1.0000  0.0000  0.0000
     7 H(1)   Bbb     0.0000     0.000     0.000     0.000 -0.0000  1.0000  0.0000
              Bcc     0.0000     0.000     0.000     0.000  0.0000  0.0000  1.0000
 
              Baa     0.0000    -0.000    -0.000    -0.000  1.0000  0.0000  0.0000
     8 O(17)  Bbb     0.0000    -0.000    -0.000    -0.000 -0.0000  1.0000  0.0000
              Bcc     0.0000    -0.000    -0.000    -0.000  0.0000  0.0000  1.0000
 
              Baa     0.0000     0.000     0.000     0.000  1.0000  0.0000  0.0000
     9 H(1)   Bbb     0.0000     0.000     0.000     0.000 -0.0000  1.0000  0.0000
              Bcc     0.0000     0.000     0.000     0.000  0.0000  0.0000  1.0000
 
              Baa     0.0000     0.000     0.000     0.000  1.0000  0.0000  0.0000
    10 H(1)   Bbb     0.0000     0.000     0.000     0.000 -0.0000  1.0000  0.0000
              Bcc     0.0000     0.000     0.000     0.000  0.0000  0.0000  1.0000
 
              Baa     0.0000    -0.000    -0.000    -0.000  1.0000  0.0000  0.0000
    11 O(17)  Bbb     0.0000    -0.000    -0.000    -0.000 -0.0000  1.0000  0.0000
              Bcc     0.0000    -0.000    -0.000    -0.000  0.0000  0.0000  1.0000
 
              Baa     0.0000     0.000     0.000     0.000  1.0000  0.0000  0.0000
    12 H(1)   Bbb     0.0000     0.000     0.000     0.000 -0.0000  1.0000  0.0000
              Bcc     0.0000     0.000     0.000     0.000  0.0000  0.0000  1.0000
 
              Baa     0.0000     0.000     0.000     0.000  1.0000  0.0000  0.0000
    13 H(1)   Bbb     0.0000     0.000     0.000     0.000 -0.0000  1.0000  0.0000
              Bcc     0.0000     0.000     0.000     0.000  0.0000  0.0000  1.0000
 
              Baa     0.0000    -0.000    -0.000    -0.000  1.0000  0.0000  0.0000
    14 O(17)  Bbb     0.0000    -0.000    -0.000    -0.000 -0.0000  1.0000  0.0000
              Bcc     0.0000    -0.000    -0.000    -0.000  0.0000  0.0000  1.0000
 
              Baa     0.0000     0.000     0.000     0.000  1.0000  0.0000  0.0000
    15 H(1)   Bbb     0.0000     0.000     0.000     0.000 -0.0000  1.0000  0.0000
              Bcc     0.0000     0.000     0.000     0.000  0.0000  0.0000  1.0000
 
              Baa     0.0000     0.000     0.000     0.000  1.0000  0.0000  0.0000
    16 H(1)   Bbb     0.0000     0.000     0.000     0.000 -0.0000  1.0000  0.0000
              Bcc     0.0000     0.000     0.000     0.000  0.0000  0.0000  1.0000
 
              Baa     0.0000    -0.000    -0.000    -0.000  1.0000  0.0000  0.0000
    17 O(17)  Bbb     0.0000    -0.000    -0.000    -0.000 -0.0000  1.0000  0.0000
              Bcc     0.0000    -0.000    -0.000    -0.000  0.0000  0.0000  1.0000
 
              Baa     0.0000     0.000     0.000     0.000  1.0000  0.0000  0.0000
    18 H(1)   Bbb     0.0000     0.000     0.000     0.000 -0.0000  1.0000  0.0000
              Bcc     0.0000     0.000     0.000     0.000  0.0000  0.0000  1.0000
 
              Baa     0.0000     0.000     0.000     0.000  1.0000  0.0000  0.0000
    19 H(1)   Bbb     0.0000     0.000     0.000     0.000 -0.0000  1.0000  0.0000
              Bcc     0.0000     0.000     0.000     0.000  0.0000  0.0000  1.0000
 

 ---------------------------------------------------------------------------------

 Calling FoFJK, ICntrl=      2127 FMM=F ISym2X=0 I1Cent= 0 IOpClX= 1 NMat=1 NMatS=1 NMatT=0.
 ***** Axes restored to original set *****
 -------------------------------------------------------------------
 Center     Atomic                   Forces (Hartrees/Bohr)
 Number     Number              X              Y              Z
 -------------------------------------------------------------------
      1       30          -0.000066194    0.000062035    0.000179447
      2        8           0.000234828    0.000025243    0.000371923
      3        1           0.000080047    0.000099219   -0.000218344
      4        1          -0.000201076   -0.000116752   -0.000134330
      5        8          -0.000017542   -0.000040575   -0.000140576
      6        1           0.000011005   -0.000068601    0.000190955
      7        1          -0.000010122    0.000182152   -0.000109417
      8        8          -0.000345514    0.000138234    0.000053477
      9        1           0.000093023   -0.000002850    0.000062021
     10        1           0.000019266   -0.000178063   -0.000165233
     11        8           0.000008887   -0.000205339    0.000160570
     12        1          -0.000172492    0.000064828    0.000016510
     13        1           0.000217240   -0.000016063   -0.000183349
     14        8           0.000342095   -0.000103356   -0.000072847
     15        1          -0.000182297    0.000108077    0.000006685
     16        1          -0.000035490    0.000038317    0.000046790
     17        8           0.000044395    0.000062449   -0.000147463
     18        1           0.000034094   -0.000118701    0.000077862
     19        1          -0.000054154    0.000069745    0.000005319
 -------------------------------------------------------------------
 Cartesian Forces:  Max     0.000371923 RMS     0.000139865

 GradGradGradGradGradGradGradGradGradGradGradGradGradGradGradGradGradGrad
 Berny optimization.
 FormGI is forming the generalized inverse of G from B-inverse, IUseBI=4.
 Internal  Forces:  Max     0.000259643 RMS     0.000077650
 Search for a local minimum.
 Step number   1 out of a maximum of  114
 All quantities printed in internal units (Hartrees-Bohrs-Radians)
 Mixed Optimization -- En-DIIS/RFO-DIIS
 Second derivative matrix not updated -- first step.
 ITU=  0
     Eigenvalues ---    0.00463   0.00472   0.00475   0.00537   0.00542
     Eigenvalues ---    0.00548   0.00555   0.00555   0.00557   0.00696
     Eigenvalues ---    0.00714   0.00720   0.05815   0.05819   0.05823
     Eigenvalues ---    0.06775   0.06785   0.06787   0.11007   0.11021
     Eigenvalues ---    0.11038   0.11057   0.11059   0.11060   0.12807
     Eigenvalues ---    0.12869   0.12889   0.16000   0.16000   0.16000
     Eigenvalues ---    0.16000   0.16000   0.16000   0.16000   0.16000
     Eigenvalues ---    0.16000   0.16000   0.16000   0.16000   0.54600
     Eigenvalues ---    0.54604   0.54614   0.54626   0.54634   0.54637
     Eigenvalues ---    0.54644   0.54653   0.54662   0.54668   0.54679
     Eigenvalues ---    0.54680
 RFO step:  Lambda=-6.80569873D-06 EMin= 4.62823445D-03
 Linear search not attempted -- first point.
 Iteration  1 RMS(Cart)=  0.00173651 RMS(Int)=  0.00000377
 Iteration  2 RMS(Cart)=  0.00000354 RMS(Int)=  0.00000084
 Iteration  3 RMS(Cart)=  0.00000000 RMS(Int)=  0.00000084
 Variable       Old X    -DE/DX   Delta X   Delta X   Delta X     New X
                                 (Linear)    (Quad)   (Total)
    R1        3.97543  -0.00009   0.00000  -0.00084  -0.00084   3.97459
    R2        3.97531  -0.00001   0.00000  -0.00012  -0.00012   3.97518
    R3        3.97554  -0.00012   0.00000  -0.00112  -0.00112   3.97441
    R4        3.97937  -0.00013   0.00000  -0.00114  -0.00114   3.97822
    R5        3.97699  -0.00008   0.00000  -0.00077  -0.00077   3.97622
    R6        3.97831  -0.00005   0.00000  -0.00043  -0.00043   3.97788
    R7        1.82189  -0.00016   0.00000  -0.00029  -0.00029   1.82160
    R8        1.82128   0.00015   0.00000   0.00028   0.00028   1.82157
    R9        1.82177  -0.00009   0.00000  -0.00017  -0.00017   1.82161
   R10        1.82186  -0.00016   0.00000  -0.00029  -0.00029   1.82157
   R11        1.82150   0.00010   0.00000   0.00019   0.00019   1.82169
   R12        1.82117   0.00023   0.00000   0.00042   0.00042   1.82159
   R13        1.82159   0.00016   0.00000   0.00030   0.00030   1.82189
   R14        1.82118   0.00026   0.00000   0.00047   0.00047   1.82165
   R15        1.82133   0.00017   0.00000   0.00031   0.00031   1.82164
   R16        1.82141   0.00005   0.00000   0.00009   0.00009   1.82151
   R17        1.82166   0.00011   0.00000   0.00020   0.00020   1.82186
   R18        1.82156   0.00001   0.00000   0.00003   0.00003   1.82159
    A1        1.57350  -0.00013   0.00000  -0.00125  -0.00125   1.57225
    A2        1.57416   0.00000   0.00000  -0.00016  -0.00016   1.57400
    A3        1.56891   0.00011   0.00000   0.00087   0.00087   1.56978
    A4        1.56867  -0.00002   0.00000  -0.00024  -0.00024   1.56842
    A5        1.57036   0.00010   0.00000   0.00075   0.00075   1.57111
    A6        1.56733  -0.00002   0.00000  -0.00008  -0.00008   1.56725
    A7        1.57042  -0.00008   0.00000  -0.00037  -0.00037   1.57005
    A8        1.57303   0.00004   0.00000   0.00049   0.00049   1.57352
    A9        1.57418  -0.00004   0.00000  -0.00057  -0.00057   1.57361
   A10        1.56939   0.00000   0.00000  -0.00003  -0.00003   1.56936
   A11        1.56892   0.00003   0.00000   0.00025   0.00025   1.56917
   A12        1.57070   0.00002   0.00000   0.00035   0.00035   1.57105
   A13        2.19993   0.00005   0.00000   0.00035   0.00035   2.20027
   A14        2.20146   0.00017   0.00000   0.00107   0.00106   2.20252
   A15        1.88176  -0.00022   0.00000  -0.00138  -0.00138   1.88038
   A16        2.19677   0.00014   0.00000   0.00088   0.00087   2.19764
   A17        2.20510   0.00005   0.00000   0.00029   0.00029   2.20539
   A18        1.88129  -0.00018   0.00000  -0.00114  -0.00114   1.88015
   A19        2.20287  -0.00008   0.00000  -0.00048  -0.00048   2.20239
   A20        2.20075   0.00009   0.00000   0.00057   0.00057   2.20133
   A21        1.87945  -0.00001   0.00000  -0.00005  -0.00005   1.87939
   A22        2.19955  -0.00003   0.00000  -0.00017  -0.00017   2.19938
   A23        2.20501  -0.00006   0.00000  -0.00037  -0.00037   2.20463
   A24        1.87861   0.00009   0.00000   0.00054   0.00054   1.87916
   A25        2.19854   0.00008   0.00000   0.00054   0.00053   2.19907
   A26        2.20450   0.00000   0.00000   0.00003   0.00003   2.20452
   A27        1.88007  -0.00009   0.00000  -0.00053  -0.00053   1.87954
   A28        2.19532   0.00016   0.00000   0.00099   0.00099   2.19630
   A29        2.20833  -0.00015   0.00000  -0.00092  -0.00092   2.20740
   A30        1.87952  -0.00001   0.00000  -0.00006  -0.00006   1.87946
   A31        3.14386  -0.00003   0.00000  -0.00050  -0.00050   3.14335
   A32        3.14241  -0.00003   0.00000  -0.00038  -0.00038   3.14202
   A33        3.14283  -0.00002   0.00000  -0.00041  -0.00041   3.14242
   A34        3.14149  -0.00002   0.00000  -0.00024  -0.00024   3.14125
   A35        3.14009   0.00002   0.00000   0.00032   0.00032   3.14041
   A36        3.14357  -0.00004   0.00000  -0.00061  -0.00061   3.14296
    D1        1.58658  -0.00002   0.00000  -0.00684  -0.00684   1.57975
    D2       -1.56459   0.00000   0.00000  -0.00089  -0.00089  -1.56548
    D3       -3.12242  -0.00007   0.00000  -0.00741  -0.00741  -3.12983
    D4        0.00960  -0.00004   0.00000  -0.00147  -0.00147   0.00813
    D5       -1.55350  -0.00004   0.00000  -0.00716  -0.00716  -1.56066
    D6        1.57851  -0.00002   0.00000  -0.00122  -0.00122   1.57730
    D7        0.01720  -0.00003   0.00000  -0.00681  -0.00681   0.01039
    D8       -3.13397  -0.00000   0.00000  -0.00086  -0.00086  -3.13483
    D9       -3.13443  -0.00003   0.00000  -0.00306  -0.00306  -3.13748
   D10        0.01437  -0.00004   0.00000  -0.00735  -0.00735   0.00702
   D11       -0.00406   0.00002   0.00000   0.00325   0.00325  -0.00081
   D12       -3.13846   0.00001   0.00000  -0.00104  -0.00104  -3.13950
   D13        1.56053   0.00002   0.00000   0.00414   0.00414   1.56468
   D14       -1.57221  -0.00002   0.00000  -0.00051  -0.00051  -1.57272
   D15       -0.01365   0.00006   0.00000   0.00472   0.00472  -0.00893
   D16        3.13680   0.00003   0.00000   0.00006   0.00006   3.13686
   D17       -1.58257   0.00004   0.00000   0.00446   0.00446  -1.57810
   D18        1.56788   0.00000   0.00000  -0.00019  -0.00019   1.56768
   D19        3.12992   0.00002   0.00000   0.00411   0.00411   3.13403
   D20       -0.00282  -0.00001   0.00000  -0.00054  -0.00054  -0.00337
   D21        3.13922   0.00002   0.00000   0.00170   0.00170   3.14092
   D22        0.01600  -0.00001   0.00000  -0.00145  -0.00145   0.01455
   D23       -0.00227   0.00003   0.00000   0.00194   0.00194  -0.00033
   D24       -3.12549   0.00001   0.00000  -0.00121  -0.00121  -3.12670
   D25        1.56505   0.00002   0.00000   0.00187   0.00187   1.56692
   D26       -1.55817  -0.00001   0.00000  -0.00128  -0.00128  -1.55945
   D27       -1.57530  -0.00001   0.00000   0.00146   0.00146  -1.57385
   D28        1.58466  -0.00003   0.00000  -0.00169  -0.00169   1.58297
   D29       -3.13855  -0.00002   0.00000  -0.00218  -0.00218  -3.14074
   D30       -0.01314   0.00001   0.00000   0.00134   0.00134  -0.01180
   D31        0.02032  -0.00003   0.00000  -0.00510  -0.00510   0.01522
   D32       -3.13745   0.00000   0.00000  -0.00158  -0.00158  -3.13904
   D33        1.57581   0.00005   0.00000  -0.00290  -0.00290   1.57291
   D34       -1.55990   0.00005   0.00000  -0.00182  -0.00182  -1.56172
   D35       -1.56351   0.00002   0.00000  -0.00341  -0.00341  -1.56692
   D36        1.58395   0.00002   0.00000  -0.00232  -0.00232   1.58163
   D37       -3.13386  -0.00008   0.00000  -0.00416  -0.00415  -3.13802
   D38        0.01361  -0.00008   0.00000  -0.00307  -0.00307   0.01053
   D39        0.00691  -0.00006   0.00000  -0.00377  -0.00377   0.00314
   D40       -3.12880  -0.00006   0.00000  -0.00269  -0.00269  -3.13149
   D41       -3.13468  -0.00002   0.00000  -0.00297  -0.00297  -3.13765
   D42       -0.00257  -0.00001   0.00000  -0.00244  -0.00244  -0.00501
   D43        0.01190  -0.00001   0.00000  -0.00159  -0.00159   0.01031
   D44       -3.13918   0.00001   0.00000  -0.00107  -0.00107  -3.14024
   D45        0.00432  -0.00002   0.00000  -0.00365  -0.00365   0.00067
   D46        3.13083  -0.00001   0.00000  -0.00036  -0.00036   3.13047
   D47       -3.13738  -0.00004   0.00000  -0.00389  -0.00389  -3.14127
   D48       -0.01087  -0.00002   0.00000  -0.00061  -0.00061  -0.01147
   D49        1.57848  -0.00002   0.00000  -0.00381  -0.00381   1.57467
   D50       -1.57819  -0.00001   0.00000  -0.00053  -0.00053  -1.57872
   D51       -1.56435   0.00000   0.00000  -0.00340  -0.00340  -1.56775
   D52        1.56216   0.00002   0.00000  -0.00012  -0.00012   1.56204
   D53        1.57180  -0.00005   0.00000   0.00023   0.00023   1.57203
   D54       -1.57838  -0.00006   0.00000   0.00046   0.00046  -1.57792
   D55       -1.57206  -0.00003   0.00000   0.00073   0.00073  -1.57133
   D56        1.56095  -0.00003   0.00000   0.00096   0.00096   1.56191
   D57       -0.00171   0.00008   0.00000   0.00148   0.00148  -0.00023
   D58        3.13130   0.00007   0.00000   0.00171   0.00171   3.13301
   D59        3.14070   0.00005   0.00000   0.00110   0.00110  -3.14138
   D60       -0.00947   0.00005   0.00000   0.00133   0.00133  -0.00815
         Item               Value     Threshold  Converged?
 Maximum Force            0.000260     0.000450     YES
 RMS     Force            0.000078     0.000300     YES
 Maximum Displacement     0.008936     0.001800     NO 
 RMS     Displacement     0.001737     0.001200     NO 
 Predicted change in Energy=-3.402890D-06
 GradGradGradGradGradGradGradGradGradGradGradGradGradGradGradGradGradGrad

                          Input orientation:                          
 ---------------------------------------------------------------------
 Center     Atomic      Atomic             Coordinates (Angstroms)
 Number     Number       Type             X           Y           Z
 ---------------------------------------------------------------------
      1         30           0        0.000537    4.229725    3.535822
      2          8           0       -1.450470    3.308655    2.323418
      3          1           0       -1.821708    2.428394    2.451964
      4          1           0       -1.865460    3.691152    1.541983
      5          8           0        1.449053    5.152930    4.750123
      6          1           0        1.816332    6.034781    4.621094
      7          1           0        1.866884    4.772382    5.530997
      8          8           0        1.523633    3.429380    2.326300
      9          1           0        2.471739    3.554362    2.447807
     10          1           0        1.398570    2.880976    1.543485
     11          8           0       -0.067494    5.948965    2.322811
     12          1           0       -0.648562    6.708109    2.447518
     13          1           0        0.470826    6.117857    1.541184
     14          8           0       -1.522546    5.028803    4.747864
     15          1           0       -2.470106    4.901709    4.624511
     16          1           0       -1.400165    5.578956    5.529822
     17          8           0        0.067673    2.512487    4.751396
     18          1           0        0.651516    1.755416    4.627145
     19          1           0       -0.470752    2.341962    5.532555
 ---------------------------------------------------------------------
                    Distance matrix (angstroms):
                    1          2          3          4          5
     1  Zn   0.000000
     2  O    2.103263   0.000000
     3  H    2.782107   0.963951   0.000000
     4  H    2.783415   0.963931   1.557093   0.000000
     5  O    2.103576   4.206837   4.837614   4.838900   0.000000
     6  H    2.780855   4.835605   5.562957   5.341266   0.963952
     7  H    2.785400   4.841063   5.346067   5.568814   0.963932
     8  O    2.103168   2.976553   3.494148   3.488500   2.975080
     9  H    2.783295   3.931865   4.438638   4.432892   2.983616
    10  H    2.782629   2.984666   3.376441   3.363076   3.930248
    11  O    2.105186   2.980581   3.935527   2.989999   2.970762
    12  H    2.783544   3.494960   4.437595   3.376813   3.481460
    13  H    2.786538   3.492117   4.438172   3.368550   3.490745
    14  O    2.104127   2.973557   3.481779   3.490641   2.974191
    15  H    2.782244   2.978676   3.355245   3.366455   3.929211
    16  H    2.785394   3.929099   4.424584   4.436571   2.984539
    17  O    2.105003   2.972157   2.977284   3.927670   2.979958
    18  H    2.781541   3.483971   3.361718   4.427242   3.492033
    19  H    2.787957   3.491833   3.364906   4.437363   3.492762
                    6          7          8          9         10
     6  H    0.000000
     7  H    1.556962   0.000000
     8  O    3.484231   3.491641   0.000000
     9  H    3.362322   3.369790   0.963997   0.000000
    10  H    4.426363   4.438129   0.963944   1.556579   0.000000
    11  O    2.972923   3.926655   2.979934   3.492485   3.488445
    12  H    3.354625   4.425195   3.934868   4.436485   4.433393
    13  H    3.362014   4.435977   2.992109   3.375963   3.367211
    14  O    3.489437   3.488163   4.207295   4.839272   4.838814
    15  H    4.433669   4.432598   4.837300   5.565539   5.342540
    16  H    3.373339   3.365140   4.840642   5.346909   5.568024
    17  O    3.934633   2.991999   2.973483   3.488777   3.492530
    18  H    4.435065   3.375819   2.976009   3.361389   3.366591
    19  H    4.438290   3.372163   3.929391   4.432137   4.438195
                   11         12         13         14         15
    11  O    0.000000
    12  H    0.964101   0.000000
    13  H    0.963978   1.556557   0.000000
    14  O    2.974013   2.979179   3.929677   0.000000
    15  H    3.488139   3.364581   4.431140   0.963971   0.000000
    16  H    3.492540   3.367564   4.438496   0.963900   1.556607
    17  O    4.210187   4.839844   4.844243   2.976685   3.487808
    18  H    4.838676   5.565083   5.346653   3.931435   4.432121
    19  H    4.845156   5.349047   5.574494   2.990171   3.372575
                   16         17         18         19
    16  H    0.000000
    17  O    3.487653   0.000000
    18  H    4.432119   0.964089   0.000000
    19  H    3.367780   0.963944   1.556692   0.000000
 Stoichiometry    H12O6Zn(2+)
 Framework group  C1[X(H12O6Zn)]
 Deg. of freedom    51
 Full point group                 C1      NOp   1
 Largest Abelian subgroup         C1      NOp   1
 Largest concise Abelian subgroup C1      NOp   1
                         Standard orientation:                         
 ---------------------------------------------------------------------
 Center     Atomic      Atomic             Coordinates (Angstroms)
 Number     Number       Type             X           Y           Z
 ---------------------------------------------------------------------
      1         30           0        0.000214    0.000645   -0.000592
      2          8           0        1.190509   -0.779307   -1.549328
      3          1           0        2.141035   -0.934993   -1.511082
      4          1           0        0.883879   -1.047685   -2.422892
      5          8           0       -1.191425    0.777227    1.549232
      6          1           0       -2.142524    0.928967    1.509391
      7          1           0       -0.887418    1.047896    2.423006
      8          8           0        0.330978    1.947988   -0.722928
      9          1           0       -0.020421    2.762420   -0.345424
     10          1           0        0.851950    2.185656   -1.498357
     11          8           0       -1.707943   -0.167728   -1.219468
     12          1           0       -2.290357   -0.933907   -1.276530
     13          1           0       -2.046188    0.502560   -1.824081
     14          8           0       -0.329198   -1.947051    0.724195
     15          1           0        0.024011   -2.759935    0.345112
[...]
    10  H   -0.000707  -0.000026  -0.000141   0.000014   0.001386  -0.000690
    11  O    0.272835  -0.031184   0.001401   0.001366   0.006313  -0.000019
    12  H   -0.003741   0.005853  -0.000720  -0.000689  -0.000017   0.000013
    13  H    0.396039   0.000754   0.000149   0.000148  -0.000031  -0.000141
    14  O    0.000754   7.746518   0.272897   0.272800  -0.030733   0.000779
    15  H    0.000149   0.272897   0.396070  -0.003772   0.001362   0.000148
    16  H    0.000148   0.272800  -0.003772   0.396090   0.001354   0.000147
    17  O   -0.000031  -0.030733   0.001362   0.001354   7.745761   0.272898
    18  H   -0.000141   0.000779   0.000148   0.000147   0.272898   0.396414
    19  H    0.000014   0.005688  -0.000703  -0.000708   0.272886  -0.003755
              19
     1  Zn  -0.019893
     2  O    0.001363
     3  H   -0.000701
     4  H    0.000149
     5  O    0.001330
     6  H    0.000145
     7  H   -0.000698
     8  O    0.000748
     9  H    0.000150
    10  H    0.000150
    11  O   -0.000033
    12  H   -0.000141
    13  H    0.000014
    14  O    0.005688
    15  H   -0.000703
    16  H   -0.000708
    17  O    0.272886
    18  H   -0.003755
    19  H    0.396078
          Atomic-Atomic Spin Densities.
               1          2          3          4          5          6
     1  Zn   0.000000   0.000000   0.000000   0.000000   0.000000   0.000000
     2  O    0.000000   0.000000   0.000000   0.000000   0.000000   0.000000
     3  H    0.000000   0.000000   0.000000   0.000000   0.000000   0.000000
     4  H    0.000000   0.000000   0.000000   0.000000   0.000000   0.000000
     5  O    0.000000   0.000000   0.000000   0.000000   0.000000   0.000000
     6  H    0.000000   0.000000   0.000000   0.000000   0.000000   0.000000
     7  H    0.000000   0.000000   0.000000   0.000000   0.000000   0.000000
     8  O    0.000000   0.000000   0.000000   0.000000   0.000000   0.000000
     9  H    0.000000   0.000000   0.000000   0.000000   0.000000   0.000000
    10  H    0.000000   0.000000   0.000000   0.000000   0.000000   0.000000
    11  O    0.000000   0.000000   0.000000   0.000000   0.000000   0.000000
    12  H    0.000000   0.000000   0.000000   0.000000   0.000000   0.000000
    13  H    0.000000   0.000000   0.000000   0.000000   0.000000   0.000000
    14  O    0.000000   0.000000   0.000000   0.000000   0.000000   0.000000
    15  H    0.000000   0.000000   0.000000   0.000000   0.000000   0.000000
    16  H    0.000000   0.000000   0.000000   0.000000   0.000000   0.000000
    17  O    0.000000   0.000000   0.000000   0.000000   0.000000   0.000000
    18  H    0.000000   0.000000   0.000000   0.000000   0.000000   0.000000
    19  H    0.000000   0.000000   0.000000   0.000000   0.000000   0.000000
               7          8          9         10         11         12
     1  Zn   0.000000   0.000000   0.000000   0.000000   0.000000   0.000000
     2  O    0.000000   0.000000   0.000000   0.000000   0.000000   0.000000
     3  H    0.000000   0.000000   0.000000   0.000000   0.000000   0.000000
     4  H    0.000000   0.000000   0.000000   0.000000   0.000000   0.000000
     5  O    0.000000   0.000000   0.000000   0.000000   0.000000   0.000000
     6  H    0.000000   0.000000   0.000000   0.000000   0.000000   0.000000
     7  H    0.000000   0.000000   0.000000   0.000000   0.000000   0.000000
     8  O    0.000000   0.000000   0.000000   0.000000   0.000000   0.000000
     9  H    0.000000   0.000000   0.000000   0.000000   0.000000   0.000000
    10  H    0.000000   0.000000   0.000000   0.000000   0.000000   0.000000
    11  O    0.000000   0.000000   0.000000   0.000000   0.000000   0.000000
    12  H    0.000000   0.000000   0.000000   0.000000   0.000000   0.000000
    13  H    0.000000   0.000000   0.000000   0.000000   0.000000   0.000000
    14  O    0.000000   0.000000   0.000000   0.000000   0.000000   0.000000
    15  H    0.000000   0.000000   0.000000   0.000000   0.000000   0.000000
    16  H    0.000000   0.000000   0.000000   0.000000   0.000000   0.000000
    17  O    0.000000   0.000000   0.000000   0.000000   0.000000   0.000000
    18  H    0.000000   0.000000   0.000000   0.000000   0.000000   0.000000
    19  H    0.000000   0.000000   0.000000   0.000000   0.000000   0.000000
              13         14         15         16         17         18
     1  Zn   0.000000   0.000000   0.000000   0.000000   0.000000   0.000000
     2  O    0.000000   0.000000   0.000000   0.000000   0.000000   0.000000
     3  H    0.000000   0.000000   0.000000   0.000000   0.000000   0.000000
     4  H    0.000000   0.000000   0.000000   0.000000   0.000000   0.000000
     5  O    0.000000   0.000000   0.000000   0.000000   0.000000   0.000000
     6  H    0.000000   0.000000   0.000000   0.000000   0.000000   0.000000
     7  H    0.000000   0.000000   0.000000   0.000000   0.000000   0.000000
     8  O    0.000000   0.000000   0.000000   0.000000   0.000000   0.000000
     9  H    0.000000   0.000000   0.000000   0.000000   0.000000   0.000000
    10  H    0.000000   0.000000   0.000000   0.000000   0.000000   0.000000
    11  O    0.000000   0.000000   0.000000   0.000000   0.000000   0.000000
    12  H    0.000000   0.000000   0.000000   0.000000   0.000000   0.000000
    13  H    0.000000   0.000000   0.000000   0.000000   0.000000   0.000000
    14  O    0.000000   0.000000   0.000000   0.000000   0.000000   0.000000
    15  H    0.000000   0.000000   0.000000   0.000000   0.000000   0.000000
    16  H    0.000000   0.000000   0.000000   0.000000   0.000000   0.000000
    17  O    0.000000   0.000000   0.000000   0.000000   0.000000   0.000000
    18  H    0.000000   0.000000   0.000000   0.000000   0.000000   0.000000
    19  H    0.000000   0.000000   0.000000   0.000000   0.000000   0.000000
              19
     1  Zn   0.000000
     2  O    0.000000
     3  H    0.000000
     4  H    0.000000
     5  O    0.000000
     6  H    0.000000
     7  H    0.000000
     8  O    0.000000
     9  H    0.000000
    10  H    0.000000
    11  O    0.000000
    12  H    0.000000
    13  H    0.000000
    14  O    0.000000
    15  H    0.000000
    16  H    0.000000
    17  O    0.000000
    18  H    0.000000
    19  H    0.000000
 Mulliken charges and spin densities:
               1          2
     1  Zn  -0.108760   0.000000
     2  O   -0.344829   0.000000
     3  H    0.348311   0.000000
     4  H    0.348272   0.000000
     5  O   -0.344693   0.000000
     6  H    0.348138   0.000000
     7  H    0.348162   0.000000
     8  O   -0.345021   0.000000
     9  H    0.348246   0.000000
    10  H    0.348287   0.000000
    11  O   -0.344926   0.000000
    12  H    0.348201   0.000000
    13  H    0.348064   0.000000
    14  O   -0.345080   0.000000
    15  H    0.348007   0.000000
    16  H    0.348196   0.000000
    17  O   -0.344458   0.000000
    18  H    0.347949   0.000000
    19  H    0.347932   0.000000
 Sum of Mulliken charges =   2.00000   0.00000
 Mulliken charges and spin densities with hydrogens summed into heavy atoms:
               1          2
     1  Zn  -0.108760   0.000000
     2  O    0.351755   0.000000
     5  O    0.351608   0.000000
     8  O    0.351512   0.000000
    11  O    0.351340   0.000000
    14  O    0.351123   0.000000
    17  O    0.351424   0.000000
 Electronic spatial extent (au):  <R**2>=           1123.8138
 Charge=              2.0000 electrons
 Dipole moment (field-independent basis, Debye):
    X=             -0.0006    Y=              0.0020    Z=             -0.0110  Tot=              0.0112
 Quadrupole moment (field-independent basis, Debye-Ang):
   XX=            -14.8643   YY=            -14.7549   ZZ=            -14.7659
   XY=             -0.0093   XZ=              0.0185   YZ=             -0.0032
 Traceless Quadrupole moment (field-independent basis, Debye-Ang):
   XX=             -0.0693   YY=              0.0402   ZZ=              0.0291
   XY=             -0.0093   XZ=              0.0185   YZ=             -0.0032
 Octapole moment (field-independent basis, Debye-Ang**2):
  XXX=             -0.0176  YYY=              0.0041  ZZZ=             -0.0144  XYY=             -0.0037
  XXY=              0.0166  XXZ=             -0.0098  XZZ=              0.0070  YZZ=             -0.0051
  YYZ=             -0.0211  XYZ=             -0.0028
 Hexadecapole moment (field-independent basis, Debye-Ang**3):
 XXXX=           -224.9585 YYYY=           -203.7638 ZZZZ=           -233.1255 XXXY=             -5.1255
 XXXZ=             34.2992 YYYX=             16.9697 YYYZ=            -10.9083 ZZZX=             11.8038
 ZZZY=             10.9412 XXYY=            -60.1880 XXZZ=            -29.6584 YYZZ=            -48.9211
 XXYZ=             -0.1430 YYXZ=            -45.9221 ZZXY=            -11.9410
 N-N= 7.234652544507D+02 E-N=-6.762594356015D+03  KE= 2.234228245867D+03
                          Isotropic Fermi Contact Couplings
        Atom                 a.u.       MegaHertz       Gauss      10(-4) cm-1
     1  Zn(67)             0.00000       0.00000       0.00000       0.00000
     2  O(17)              0.00000      -0.00000      -0.00000      -0.00000
     3  H(1)               0.00000       0.00000       0.00000       0.00000
     4  H(1)               0.00000       0.00000       0.00000       0.00000
     5  O(17)              0.00000      -0.00000      -0.00000      -0.00000
     6  H(1)               0.00000       0.00000       0.00000       0.00000
     7  H(1)               0.00000       0.00000       0.00000       0.00000
     8  O(17)              0.00000      -0.00000      -0.00000      -0.00000
     9  H(1)               0.00000       0.00000       0.00000       0.00000
    10  H(1)               0.00000       0.00000       0.00000       0.00000
    11  O(17)              0.00000      -0.00000      -0.00000      -0.00000
    12  H(1)               0.00000       0.00000       0.00000       0.00000
    13  H(1)               0.00000       0.00000       0.00000       0.00000
    14  O(17)              0.00000      -0.00000      -0.00000      -0.00000
    15  H(1)               0.00000       0.00000       0.00000       0.00000
    16  H(1)               0.00000       0.00000       0.00000       0.00000
    17  O(17)              0.00000      -0.00000      -0.00000      -0.00000
    18  H(1)               0.00000       0.00000       0.00000       0.00000
    19  H(1)               0.00000       0.00000       0.00000       0.00000
 --------------------------------------------------------
       Center         ----  Spin Dipole Couplings  ----
                      3XX-RR        3YY-RR        3ZZ-RR
 --------------------------------------------------------
     1   Atom        0.000000      0.000000      0.000000
     2   Atom        0.000000      0.000000      0.000000
     3   Atom        0.000000      0.000000      0.000000
     4   Atom        0.000000      0.000000      0.000000
     5   Atom        0.000000      0.000000      0.000000
     6   Atom        0.000000      0.000000      0.000000
     7   Atom        0.000000      0.000000      0.000000
     8   Atom        0.000000      0.000000      0.000000
     9   Atom        0.000000      0.000000      0.000000
    10   Atom        0.000000      0.000000      0.000000
    11   Atom        0.000000      0.000000      0.000000
    12   Atom        0.000000      0.000000      0.000000
    13   Atom        0.000000      0.000000      0.000000
    14   Atom        0.000000      0.000000      0.000000
    15   Atom        0.000000      0.000000      0.000000
    16   Atom        0.000000      0.000000      0.000000
    17   Atom        0.000000      0.000000      0.000000
    18   Atom        0.000000      0.000000      0.000000
    19   Atom        0.000000      0.000000      0.000000
 --------------------------------------------------------
                        XY            XZ            YZ
 --------------------------------------------------------
     1   Atom        0.000000      0.000000      0.000000
     2   Atom        0.000000      0.000000      0.000000
     3   Atom        0.000000      0.000000      0.000000
     4   Atom        0.000000      0.000000      0.000000
     5   Atom        0.000000      0.000000      0.000000
     6   Atom        0.000000      0.000000      0.000000
     7   Atom        0.000000      0.000000      0.000000
     8   Atom        0.000000      0.000000      0.000000
     9   Atom        0.000000      0.000000      0.000000
    10   Atom        0.000000      0.000000      0.000000
    11   Atom        0.000000      0.000000      0.000000
    12   Atom        0.000000      0.000000      0.000000
    13   Atom        0.000000      0.000000      0.000000
    14   Atom        0.000000      0.000000      0.000000
    15   Atom        0.000000      0.000000      0.000000
    16   Atom        0.000000      0.000000      0.000000
    17   Atom        0.000000      0.000000      0.000000
    18   Atom        0.000000      0.000000      0.000000
    19   Atom        0.000000      0.000000      0.000000
 --------------------------------------------------------


 ---------------------------------------------------------------------------------
              Anisotropic Spin Dipole Couplings in Principal Axis System
 ---------------------------------------------------------------------------------

       Atom             a.u.   MegaHertz   Gauss  10(-4) cm-1        Axes

              Baa     0.0000     0.000     0.000     0.000  1.0000  0.0000  0.0000
     1 Zn(67) Bbb     0.0000     0.000     0.000     0.000 -0.0000  1.0000  0.0000
              Bcc     0.0000     0.000     0.000     0.000  0.0000  0.0000  1.0000
 
              Baa     0.0000    -0.000    -0.000    -0.000  1.0000  0.0000  0.0000
     2 O(17)  Bbb     0.0000    -0.000    -0.000    -0.000 -0.0000  1.0000  0.0000
              Bcc     0.0000    -0.000    -0.000    -0.000  0.0000  0.0000  1.0000
 
              Baa     0.0000     0.000     0.000     0.000  1.0000  0.0000  0.0000
     3 H(1)   Bbb     0.0000     0.000     0.000     0.000 -0.0000  1.0000  0.0000
              Bcc     0.0000     0.000     0.000     0.000  0.0000  0.0000  1.0000
 
              Baa     0.0000     0.000     0.000     0.000  1.0000  0.0000  0.0000
     4 H(1)   Bbb     0.0000     0.000     0.000     0.000 -0.0000  1.0000  0.0000
              Bcc     0.0000     0.000     0.000     0.000  0.0000  0.0000  1.0000
 
              Baa     0.0000    -0.000    -0.000    -0.000  1.0000  0.0000  0.0000
     5 O(17)  Bbb     0.0000    -0.000    -0.000    -0.000 -0.0000  1.0000  0.0000
              Bcc     0.0000    -0.000    -0.000    -0.000  0.0000  0.0000  1.0000
 
              Baa     0.0000     0.000     0.000     0.000  1.0000  0.0000  0.0000
     6 H(1)   Bbb     0.0000     0.000     0.000     0.000 -0.0000  1.0000  0.0000
              Bcc     0.0000     0.000     0.000     0.000  0.0000  0.0000  1.0000
 
              Baa     0.0000     0.000     0.000     0.000  1.0000  0.0000  0.0000
     7 H(1)   Bbb     0.0000     0.000     0.000     0.000 -0.0000  1.0000  0.0000
              Bcc     0.0000     0.000     0.000     0.000  0.0000  0.0000  1.0000
 
              Baa     0.0000    -0.000    -0.000    -0.000  1.0000  0.0000  0.0000
     8 O(17)  Bbb     0.0000    -0.000    -0.000    -0.000 -0.0000  1.0000  0.0000
              Bcc     0.0000    -0.000    -0.000    -0.000  0.0000  0.0000  1.0000
 
              Baa     0.0000     0.000     0.000     0.000  1.0000  0.0000  0.0000
     9 H(1)   Bbb     0.0000     0.000     0.000     0.000 -0.0000  1.0000  0.0000
              Bcc     0.0000     0.000     0.000     0.000  0.0000  0.0000  1.0000
 
              Baa     0.0000     0.000     0.000     0.000  1.0000  0.0000  0.0000
    10 H(1)   Bbb     0.0000     0.000     0.000     0.000 -0.0000  1.0000  0.0000
              Bcc     0.0000     0.000     0.000     0.000  0.0000  0.0000  1.0000
 
              Baa     0.0000    -0.000    -0.000    -0.000  1.0000  0.0000  0.0000
    11 O(17)  Bbb     0.0000    -0.000    -0.000    -0.000 -0.0000  1.0000  0.0000
              Bcc     0.0000    -0.000    -0.000    -0.000  0.0000  0.0000  1.0000
 
              Baa     0.0000     0.000     0.000     0.000  1.0000  0.0000  0.0000
    12 H(1)   Bbb     0.0000     0.000     0.000     0.000 -0.0000  1.0000  0.0000
              Bcc     0.0000     0.000     0.000     0.000  0.0000  0.0000  1.0000
 
              Baa     0.0000     0.000     0.000     0.000  1.0000  0.0000  0.0000
    13 H(1)   Bbb     0.0000     0.000     0.000     0.000 -0.0000  1.0000  0.0000
              Bcc     0.0000     0.000     0.000     0.000  0.0000  0.0000  1.0000
 
              Baa     0.0000    -0.000    -0.000    -0.000  1.0000  0.0000  0.0000
    14 O(17)  Bbb     0.0000    -0.000    -0.000    -0.000 -0.0000  1.0000  0.0000
              Bcc     0.0000    -0.000    -0.000    -0.000  0.0000  0.0000  1.0000
 
              Baa     0.0000     0.000     0.000     0.000  1.0000  0.0000  0.0000
    15 H(1)   Bbb     0.0000     0.000     0.000     0.000 -0.0000  1.0000  0.0000
              Bcc     0.0000     0.000     0.000     0.000  0.0000  0.0000  1.0000
 
              Baa     0.0000     0.000     0.000     0.000  1.0000  0.0000  0.0000
    16 H(1)   Bbb     0.0000     0.000     0.000     0.000 -0.0000  1.0000  0.0000
              Bcc     0.0000     0.000     0.000     0.000  0.0000  0.0000  1.0000
 
              Baa     0.0000    -0.000    -0.000    -0.000  1.0000  0.0000  0.0000
    17 O(17)  Bbb     0.0000    -0.000    -0.000    -0.000 -0.0000  1.0000  0.0000
              Bcc     0.0000    -0.000    -0.000    -0.000  0.0000  0.0000  1.0000
 
              Baa     0.0000     0.000     0.000     0.000  1.0000  0.0000  0.0000
    18 H(1)   Bbb     0.0000     0.000     0.000     0.000 -0.0000  1.0000  0.0000
              Bcc     0.0000     0.000     0.000     0.000  0.0000  0.0000  1.0000
 
              Baa     0.0000     0.000     0.000     0.000  1.0000  0.0000  0.0000
    19 H(1)   Bbb     0.0000     0.000     0.000     0.000 -0.0000  1.0000  0.0000
              Bcc     0.0000     0.000     0.000     0.000  0.0000  0.0000  1.0000
 

 ---------------------------------------------------------------------------------

 1\1\GINC-MN297\FOpt\UM062X\6-311++G(2d,2p)\H12O6Zn1(2+)\DARAM_A\22-May
 -2017\0\\# opt 6-311++g(2d,2p) um062x output=wfnx scf=tight geom=check
  guess=read\\Zn[H2O]6 (2+)\\2,1\Zn,0.0003678622,4.230015815,3.53651426
 47\O,-1.4499366945,3.3095109922,2.3229806956\H,-1.8186018577,2.4277708
 849,2.4484962407\H,-1.8678103676,3.6925203326,1.5431314598\O,1.4495709
 558,5.1526967235,4.7507822305\H,1.8170871352,6.0346705994,4.6232821124
 \H,1.8688847471,4.7714301855,5.5304421219\O,1.5228049582,3.4296245558,
 2.3257997989\H,2.4711332838,3.5535652925,2.447957179\H,1.3978588894,2.
 8794099664,1.5437324627\O,-0.0685769582,5.9477033241,2.3232049085\H,-0
 .6533159067,6.7045620017,2.4448262263\H,0.4728628903,6.1178452866,1.54
 36284217\O,-1.5229456874,5.0294093045,4.7484903137\H,-2.4710106762,4.9
 055512513,4.6240474294\H,-1.4001983742,5.5798758596,5.5305582103\O,0.0
 689875304,2.512778922,4.7508542554\H,0.6540521174,1.7563359714,4.62855
 31233\H,-0.4717138474,2.3417227309,5.5305185451\\Version=ES64L-G09RevE
 .01\State=1-A\HF=-2237.4174864\S2=0.\S2-1=0.\S2A=0.\RMSD=9.242e-09\RMS
 F=1.539e-04\Dipole=0.0002547,0.0006689,-0.0043397\Quadrupole=0.0290025
 ,-0.0477761,0.0187736,0.0067807,-0.0023905,-0.0214512\PG=C01 [X(H12O6Z
 n1)]\\@

 Writing a WFNX file to "Zn21.wfx"


 IF YOU DON'T HAVE THE LAW - ARGUE THE FACTS.
 IF YOU DON'T HAVE THE FACTS - ARGUE THE LAW.
 IF YOU DON'T HAVE EITHER - POUND THE TABLE.
 Job cpu time:       0 days  0 hours 25 minutes  6.9 seconds.
 File lengths (MBytes):  RWF=     93 Int=      0 D2E=      0 Chk=     12 Scr=      1
 Normal termination of Gaussian 09 at Mon May 22 11:09:50 2017.
