 Entering Gaussian System, Link 0=g09
 Input=/home/scratch/M_H2O_4_cuadrado_plano/Opt/Zn2_cuadrado_plano_cc-pvtz-def2-tzv_1.gjf
 Output=/home/scratch/M_H2O_4_cuadrado_plano/Opt/Zn2_cuadrado_plano_cc-pvtz-def2-tzv_1.log
 Initial command:
 /opt/g09/l1.exe "/home/scratch/Gau-76423.inp" -scrdir="/home/scratch/"
 Entering Link 1 = /opt/g09/l1.exe PID=     76426.
  
 Copyright (c) 1988,1990,1992,1993,1995,1998,2003,2009,2015,
            Gaussian, Inc.  All Rights Reserved.
  
 This is part of the Gaussian(R) 09 program.  It is based on
 the Gaussian(R) 03 system (copyright 2003, Gaussian, Inc.),
 the Gaussian(R) 98 system (copyright 1998, Gaussian, Inc.),
 the Gaussian(R) 94 system (copyright 1995, Gaussian, Inc.),
 the Gaussian 92(TM) system (copyright 1992, Gaussian, Inc.),
 the Gaussian 90(TM) system (copyright 1990, Gaussian, Inc.),
 the Gaussian 88(TM) system (copyright 1988, Gaussian, Inc.),
 the Gaussian 86(TM) system (copyright 1986, Carnegie Mellon
 University), and the Gaussian 82(TM) system (copyright 1983,
 Carnegie Mellon University). Gaussian is a federally registered
 trademark of Gaussian, Inc.
  
 This software contains proprietary and confidential information,
 including trade secrets, belonging to Gaussian, Inc.
  
 This software is provided under written license and may be
 used, copied, transmitted, or stored only in accord with that
 written license.
  
 The following legend is applicable only to US Government
 contracts under FAR:
  
                    RESTRICTED RIGHTS LEGEND
  
 Use, reproduction and disclosure by the US Government is
 subject to restrictions as set forth in subparagraphs (a)
 and (c) of the Commercial Computer Software - Restricted
 Rights clause in FAR 52.227-19.
  
 Gaussian, Inc.
 340 Quinnipiac St., Bldg. 40, Wallingford CT 06492
  
  
 ---------------------------------------------------------------
 Warning -- This program may not be used in any manner that
 competes with the business of Gaussian, Inc. or will provide
 assistance to any competitor of Gaussian, Inc.  The licensee
 of this program is prohibited from giving any competitor of
 Gaussian, Inc. access to this program.  By using this program,
 the user acknowledges that Gaussian, Inc. is engaged in the
 business of creating and licensing software in the field of
 computational chemistry and represents and warrants to the
 licensee that it is not a competitor of Gaussian, Inc. and that
 it will not use this program in any manner prohibited above.
 ---------------------------------------------------------------
  

 Cite this work as:
 Gaussian 09, Revision E.01,
 M. J. Frisch, G. W. Trucks, H. B. Schlegel, G. E. Scuseria, 
 M. A. Robb, J. R. Cheeseman, G. Scalmani, V. Barone, B. Mennucci, 
 G. A. Petersson, H. Nakatsuji, M. Caricato, X. Li, H. P. Hratchian, 
 A. F. Izmaylov, J. Bloino, G. Zheng, J. L. Sonnenberg, M. Hada, 
 M. Ehara, K. Toyota, R. Fukuda, J. Hasegawa, M. Ishida, T. Nakajima, 
 Y. Honda, O. Kitao, H. Nakai, T. Vreven, J. A. Montgomery, Jr., 
 J. E. Peralta, F. Ogliaro, M. Bearpark, J. J. Heyd, E. Brothers, 
 K. N. Kudin, V. N. Staroverov, T. Keith, R. Kobayashi, J. Normand, 
 K. Raghavachari, A. Rendell, J. C. Burant, S. S. Iyengar, J. Tomasi, 
 M. Cossi, N. Rega, J. M. Millam, M. Klene, J. E. Knox, J. B. Cross, 
 V. Bakken, C. Adamo, J. Jaramillo, R. Gomperts, R. E. Stratmann, 
 O. Yazyev, A. J. Austin, R. Cammi, C. Pomelli, J. W. Ochterski, 
 R. L. Martin, K. Morokuma, V. G. Zakrzewski, G. A. Voth, 
 P. Salvador, J. J. Dannenberg, S. Dapprich, A. D. Daniels, 
 O. Farkas, J. B. Foresman, J. V. Ortiz, J. Cioslowski, 
 and D. J. Fox, Gaussian, Inc., Wallingford CT, 2013.
 
 ******************************************
 Gaussian 09:  EM64L-G09RevE.01 30-Nov-2015
                 8-Aug-2024 
 ******************************************
 %chk=Zn2_cuadrado_plano_cc-pvtz-def2-tzv_1.chk
 ------------------------------------------------------------------
 # opt pbepbe/cc-pvtz/def2tzv pop=full geom=connectivity output=wfx
 ------------------------------------------------------------------
 1/14=-1,18=20,19=15,26=3,38=1,57=2/1,3;
 2/9=110,12=2,17=6,18=5,40=1/2;
 3/5=16,6=1,11=2,16=1,25=1,30=1,71=1,74=1009,82=44/1,2,3;
 4//1;
 5/5=2,38=5/2;
 6/7=3,28=1/1;
 7//1,2,3,16;
 1/14=-1,18=20,19=15,26=3/3(2);
 2/9=110/2;
 99/6=200/99;
 2/9=110/2;
 3/5=16,6=1,11=2,16=1,25=1,30=1,71=1,74=1009,82=44/1,2,3;
 4/5=5,16=3,69=1/1;
 5/5=2,38=5/2;
 7//1,2,3,16;
 1/14=-1,18=20,19=15,26=3/3(-5);
 2/9=110/2;
 6/7=3,19=2,28=1/1;
 99/6=200,9=1/99;
 -------------------------------------
 Zn2_cuadrado_plano_cc-pvtz-def2-tzv_1
 -------------------------------------
 Symbolic Z-matrix:
 Charge =  2 Multiplicity = 1
 Zn                   -1    0.00001   0.00001   0.00006 
 O                    -1   -1.81301  -0.60091  -0.00007 
 H                    0    -2.56133  -0.20723   0.49403 
 O                    -1    1.81303   0.60087  -0.00007 
 H                    0     2.1777    1.3648   -0.49257 
 O                    -1    0.6009   -1.81302  -0.00014 
 H                    0     0.20654  -2.5615    0.49319 
 O                    -1   -0.60089   1.81301  -0.00014 
 H                    0    -0.20717   2.56138   0.49393 
 H                    0    -1.36442   2.17758  -0.49325 
 H                    0     2.56154   0.20662   0.49332 
 H                    0     1.36454  -2.17779  -0.4931 
 H                    0    -2.17785  -1.36388  -0.4939 
 

 GradGradGradGradGradGradGradGradGradGradGradGradGradGradGradGradGradGrad
 Berny optimization.
 Initialization pass.
                           ----------------------------
                           !    Initial Parameters    !
                           ! (Angstroms and Degrees)  !
 --------------------------                            --------------------------
 ! Name  Definition              Value          Derivative Info.                !
 --------------------------------------------------------------------------------
 ! X1    R(1,-1)                 0.0            Frozen                          !
 ! Y1    R(1,-2)                 0.0            Frozen                          !
 ! Z1    R(1,-3)                 0.0001         Frozen                          !
 ! X2    R(2,-1)                -1.813          Frozen                          !
 ! Y2    R(2,-2)                -0.6009         Frozen                          !
 ! Z2    R(2,-3)                -0.0001         Frozen                          !
 ! X4    R(4,-1)                 1.813          Frozen                          !
 ! Y4    R(4,-2)                 0.6009         Frozen                          !
 ! Z4    R(4,-3)                -0.0001         Frozen                          !
 ! X6    R(6,-1)                 0.6009         Frozen                          !
 ! Y6    R(6,-2)                -1.813          Frozen                          !
 ! Z6    R(6,-3)                -0.0001         Frozen                          !
 ! X8    R(8,-1)                -0.6009         Frozen                          !
 ! Y8    R(8,-2)                 1.813          Frozen                          !
 ! Z8    R(8,-3)                -0.0001         Frozen                          !
 ! R1    R(2,3)                  0.9793         estimate D2E/DX2                !
 ! R2    R(2,13)                 0.9793         estimate D2E/DX2                !
 ! R3    R(4,5)                  0.9794         estimate D2E/DX2                !
 ! R4    R(4,11)                 0.9794         estimate D2E/DX2                !
 ! R5    R(6,7)                  0.9793         estimate D2E/DX2                !
 ! R6    R(6,12)                 0.9794         estimate D2E/DX2                !
 ! R7    R(8,9)                  0.9794         estimate D2E/DX2                !
 ! R8    R(8,10)                 0.9793         estimate D2E/DX2                !
 ! A1    A(1,2,3)              126.7844         estimate D2E/DX2                !
 ! A2    A(1,2,13)             126.7818         estimate D2E/DX2                !
 ! A3    A(3,2,13)             106.4338         estimate D2E/DX2                !
 ! A4    A(1,4,5)              126.7895         estimate D2E/DX2                !
 ! A5    A(1,4,11)             126.7846         estimate D2E/DX2                !
 ! A6    A(5,4,11)             106.4259         estimate D2E/DX2                !
 ! A7    A(1,6,7)              126.7785         estimate D2E/DX2                !
 ! A8    A(1,6,12)             126.7897         estimate D2E/DX2                !
 ! A9    A(7,6,12)             106.4318         estimate D2E/DX2                !
 ! A10   A(1,8,9)              126.784          estimate D2E/DX2                !
 ! A11   A(1,8,10)             126.7777         estimate D2E/DX2                !
 ! A12   A(9,8,10)             106.4383         estimate D2E/DX2                !
 ! D1    D(6,1,2,3)            140.956          estimate D2E/DX2                !
 ! D2    D(6,1,2,13)           -39.0096         estimate D2E/DX2                !
 ! D3    D(8,1,2,3)            -39.0561         estimate D2E/DX2                !
 ! D4    D(8,1,2,13)           140.9783         estimate D2E/DX2                !
 ! D5    D(3,2,4,5)            -77.9462         estimate D2E/DX2                !
 ! D6    D(3,2,4,11)           101.9716         estimate D2E/DX2                !
 ! D7    D(13,2,4,5)           102.0847         estimate D2E/DX2                !
 ! D8    D(13,2,4,11)          -77.9976         estimate D2E/DX2                !
 ! D9    D(6,1,4,5)            141.0987         estimate D2E/DX2                !
 ! D10   D(6,1,4,11)           -38.9889         estimate D2E/DX2                !
 ! D11   D(8,1,4,5)            -38.8892         estimate D2E/DX2                !
 ! D12   D(8,1,4,11)           141.0232         estimate D2E/DX2                !
 ! D13   D(2,1,6,7)            -38.9807         estimate D2E/DX2                !
 ! D14   D(2,1,6,12)           141.0623         estimate D2E/DX2                !
 ! D15   D(4,1,6,7)            141.027          estimate D2E/DX2                !
 ! D16   D(4,1,6,12)           -38.9301         estimate D2E/DX2                !
 ! D17   D(7,6,8,9)            101.9823         estimate D2E/DX2                !
 ! D18   D(7,6,8,10)           -77.9214         estimate D2E/DX2                !
 ! D19   D(12,6,8,9)           -77.982          estimate D2E/DX2                !
 ! D20   D(12,6,8,10)          102.1143         estimate D2E/DX2                !
 ! D21   D(2,1,8,9)            140.9559         estimate D2E/DX2                !
 ! D22   D(2,1,8,10)           -38.941          estimate D2E/DX2                !
 ! D23   D(4,1,8,9)            -39.0517         estimate D2E/DX2                !
 ! D24   D(4,1,8,10)           141.0514         estimate D2E/DX2                !
 --------------------------------------------------------------------------------
 Trust Radius=3.00D-01 FncErr=1.00D-07 GrdErr=1.00D-06
 Number of steps in this run=     69 maximum allowed number of steps=    100.
 GradGradGradGradGradGradGradGradGradGradGradGradGradGradGradGradGradGrad

                          Input orientation:                          
 ---------------------------------------------------------------------
 Center     Atomic      Atomic             Coordinates (Angstroms)
 Number     Number       Type             X           Y           Z
 ---------------------------------------------------------------------
      1         30           0        0.000006    0.000014    0.000058
      2          8           0       -1.813005   -0.600909   -0.000069
      3          1           0       -2.561329   -0.207235    0.494028
      4          8           0        1.813028    0.600874   -0.000069
      5          1           0        2.177699    1.364801   -0.492572
      6          8           0        0.600897   -1.813025   -0.000143
      7          1           0        0.206543   -2.561498    0.493194
      8          8           0       -0.600886    1.813009   -0.000143
      9          1           0       -0.207170    2.561376    0.493931
     10          1           0       -1.364417    2.177582   -0.493252
     11          1           0        2.561537    0.206620    0.493322
     12          1           0        1.364541   -2.177792   -0.493101
     13          1           0       -2.177853   -1.363880   -0.493898
 ---------------------------------------------------------------------
                    Distance matrix (angstroms):
                    1          2          3          4          5
     1  Zn   0.000000
     2  O    1.910005   0.000000
     3  H    2.616752   0.979336   0.000000
     4  O    1.909995   3.820000   4.475731   0.000000
     5  H    2.616806   4.475746   5.089505   0.979351   0.000000
     6  O    1.910021   2.701139   3.580843   2.701142   3.581531
     7  H    2.616713   2.857586   3.633686   3.581159   4.502557
     8  O    1.909979   2.701154   2.858133   2.701157   2.857256
     9  H    2.616755   3.580892   3.634181   2.858112   2.844746
    10  H    2.616640   2.857354   2.845114   3.581256   3.634171
    11  H    2.616761   4.475730   5.139556   0.979356   1.568662
    12  H    2.616870   3.581403   4.502219   2.857483   3.634721
    13  H    2.616729   0.979339   1.568719   4.475629   5.139702
                    6          7          8          9         10
     6  O    0.000000
     7  H    0.979341   0.000000
     8  O    3.820000   4.475671   0.000000
     9  H    4.475764   5.139552   0.979375   0.000000
    10  H    4.475551   5.089192   0.979311   1.568773   0.000000
    11  H    2.857723   3.634347   3.581189   3.634641   4.502348
    12  H    0.979395   1.568747   4.475758   5.089620   5.139698
    13  H    2.857792   2.844992   3.580956   4.501892   3.633680
                   11         12         13
    11  H    0.000000
    12  H    2.844512   0.000000
    13  H    5.089488   3.634695   0.000000
 Stoichiometry    H8O4Zn(2+)
 Framework group  C1[X(H8O4Zn)]
 Deg. of freedom    33
 Full point group                 C1      NOp   1
 Largest Abelian subgroup         C1      NOp   1
 Largest concise Abelian subgroup C1      NOp   1
                         Standard orientation:                         
 ---------------------------------------------------------------------
 Center     Atomic      Atomic             Coordinates (Angstroms)
 Number     Number       Type             X           Y           Z
 ---------------------------------------------------------------------
      1         30           0        0.000006    0.000014    0.000058
      2          8           0       -1.813049   -0.600776   -0.000069
      3          1           0       -2.561344   -0.207047    0.494028
      4          8           0        1.813072    0.600741   -0.000069
      5          1           0        2.177799    1.364641   -0.492572
      6          8           0        0.600764   -1.813069   -0.000143
      7          1           0        0.206355   -2.561513    0.493194
      8          8           0       -0.600753    1.813053   -0.000143
      9          1           0       -0.206982    2.561391    0.493931
     10          1           0       -1.364257    2.177682   -0.493252
     11          1           0        2.561552    0.206432    0.493322
     12          1           0        1.364382   -2.177892   -0.493101
     13          1           0       -2.177953   -1.363721   -0.493898
 ---------------------------------------------------------------------
 Rotational constants (GHZ):      3.4784934      3.4784589      1.7630576
 Standard basis: CC-pVTZ (5D, 7F)
 There are   344 symmetry adapted cartesian basis functions of A   symmetry.
 There are   300 symmetry adapted basis functions of A   symmetry.
   300 basis functions,   691 primitive gaussians,   344 cartesian basis functions
    34 alpha electrons       34 beta electrons
       nuclear repulsion energy       450.4052969765 Hartrees.
 NAtoms=   13 NActive=   13 NUniq=   13 SFac= 1.00D+00 NAtFMM=   60 NAOKFM=F Big=F
 Integral buffers will be    131072 words long.
 Raffenetti 2 integral format.
 Two-electron integral symmetry is turned on.
 Standard density basis: def2TZV (5D, 7F)
   110 Density fitting functions
 There are   110 symmetry adapted density basis functions of A   symmetry.
 One-electron integrals computed using PRISM.
 NBasis=   300 RedAO= T EigKep=  1.64D-03  NBF=   300
 NBsUse=   300 1.00D-06 EigRej= -1.00D+00 NBFU=   300
 NBasis=      300 NBas6D=      344 NTT=       45150   NTT6D=    59340
 NDBShl=       68 NDBF=        110 NDBF6D=      113  NNucDB=        0
 IDenFi=        2 ISolve=        0 FullAP=F BlkAPC=T NucTyp=        0
 TolInv= 1.00D-06 TolIt=  1.00D-10 IR12=0.
 FoFCou: FMM=F IPFlag=           0 FMFlag=           0 FMFlg1=           0
         NFxFlg=           0 DoJE=F BraDBF=T KetDBF=T FulRan=T
         wScrn=  0.000000 ICntrl=     600 IOpCl=  3 I1Cent=           6 NGrid=           0
         NMat0=    1 NMatS0=    113 NMatT0=    0 NMatD0=    1 NMtDS0=    0 NMtDT0=    0
 Petite list used in FoFCou.
 DBF EigKep=  1.39D-03 EigRej= -1.00D+00
 NDBF=    110  NBFD=   110
 NRank=   110 NBFDU=   110
 S*AI*S=  8.35109072010    
 ExpMin= 3.77D-02 ExpMax= 5.82D+06 ExpMxC= 6.61D+03 IAcc=3 IRadAn=         5 AccDes= 0.00D+00
 Harris functional with IExCor= 1009 and IRadAn=       5 diagonalized for initial guess.
 HarFok:  IExCor= 1009 AccDes= 0.00D+00 IRadAn=         5 IDoV= 1 UseB2=F ITyADJ=14
 ICtDFT=  3500011 ScaDFX=  1.000000  1.000000  1.000000  1.000000
 FoFCou: FMM=F IPFlag=           0 FMFlag=      100000 FMFlg1=           0
         NFxFlg=           0 DoJE=T BraDBF=F KetDBF=T FulRan=T
         wScrn=  0.000000 ICntrl=     500 IOpCl=  0 I1Cent=   200000004 NGrid=           0
         NMat0=    1 NMatS0=      1 NMatT0=    0 NMatD0=    1 NMtDS0=    0 NMtDT0=    0
 Petite list used in FoFCou.
 Requested convergence on RMS density matrix=1.00D-08 within 128 cycles.
 Requested convergence on MAX density matrix=1.00D-06.
 Requested convergence on             energy=1.00D-06.
 No special actions if energy rises.
 FoFCou: FMM=F IPFlag=           0 FMFlag=      100000 FMFlg1=           0
         NFxFlg=           0 DoJE=T BraDBF=T KetDBF=F FulRan=T
         wScrn=  0.000000 ICntrl=     500 IOpCl=  0 I1Cent=           5 NGrid=           0
         NMat0=    1 NMatS0=      1 NMatT0=    0 NMatD0=    1 NMtDS0=    0 NMtDT0=    0
 Symmetry not used in FoFCou.
 EnCoef did     2 forward-backward iterations
 SCF Done:  E(RPBE-PBE) =  -2085.03152038     A.U. after   10 cycles
            NFock= 10  Conv=0.77D-08     -V/T= 2.0021

 **********************************************************************

            Population analysis using the SCF density.

 **********************************************************************

 Orbital symmetries:
       Occupied  (A) (A) (A) (A) (A) (A) (A) (A) (A) (A) (A) (A)
                 (A) (A) (A) (A) (A) (A) (A) (A) (A) (A) (A) (A)
                 (A) (A) (A) (A) (A) (A) (A) (A) (A) (A)
       Virtual   (A) (A) (A) (A) (A) (A) (A) (A) (A) (A) (A) (A)
                 (A) (A) (A) (A) (A) (A) (A) (A) (A) (A) (A) (A)
                 (A) (A) (A) (A) (A) (A) (A) (A) (A) (A) (A) (A)
                 (A) (A) (A) (A) (A) (A) (A) (A) (A) (A) (A) (A)
                 (A) (A) (A) (A) (A) (A) (A) (A) (A) (A) (A) (A)
                 (A) (A) (A) (A) (A) (A) (A) (A) (A) (A) (A) (A)
                 (A) (A) (A) (A) (A) (A) (A) (A) (A) (A) (A) (A)
                 (A) (A) (A) (A) (A) (A) (A) (A) (A) (A) (A) (A)
                 (A) (A) (A) (A) (A) (A) (A) (A) (A) (A) (A) (A)
                 (A) (A) (A) (A) (A) (A) (A) (A) (A) (A) (A) (A)
                 (A) (A) (A) (A) (A) (A) (A) (A) (A) (A) (A) (A)
                 (A) (A) (A) (A) (A) (A) (A) (A) (A) (A) (A) (A)
                 (A) (A) (A) (A) (A) (A) (A) (A) (A) (A) (A) (A)
                 (A) (A) (A) (A) (A) (A) (A) (A) (A) (A) (A) (A)
                 (A) (A) (A) (A) (A) (A) (A) (A) (A) (A) (A) (A)
                 (A) (A) (A) (A) (A) (A) (A) (A) (A) (A) (A) (A)
                 (A) (A) (A) (A) (A) (A) (A) (A) (A) (A) (A) (A)
                 (A) (A) (A) (A) (A) (A) (A) (A) (A) (A) (A) (A)
                 (A) (A) (A) (A) (A) (A) (A) (A) (A) (A) (A) (A)
                 (A) (A) (A) (A) (A) (A) (A) (A) (A) (A) (A) (A)
                 (A) (A) (A) (A) (A) (A) (A) (A) (A) (A) (A) (A)
                 (A) (A) (A) (A) (A) (A) (A) (A) (A) (A) (A) (A)
                 (A) (A)
 The electronic state is 1-A.
 Alpha  occ. eigenvalues -- -346.01410 -42.28338 -37.37420 -37.36327 -37.36327
 Alpha  occ. eigenvalues --  -19.15400 -19.15400 -19.15399 -19.15399  -5.06123
 Alpha  occ. eigenvalues --   -3.47158  -3.45962  -3.45962  -1.33156  -1.32238
 Alpha  occ. eigenvalues --   -1.32238  -1.31775  -0.88170  -0.87122  -0.87121
 Alpha  occ. eigenvalues --   -0.86271  -0.86089  -0.85060  -0.79275  -0.79274
 Alpha  occ. eigenvalues --   -0.78053  -0.78052  -0.77077  -0.76175  -0.67161
 Alpha  occ. eigenvalues --   -0.66940  -0.66552  -0.66552  -0.65512
 Alpha virt. eigenvalues --   -0.39604  -0.33773  -0.32231  -0.32231  -0.27623
 Alpha virt. eigenvalues --   -0.27128  -0.25291  -0.24025  -0.24025  -0.23648
 Alpha virt. eigenvalues --   -0.18980  -0.14503  -0.14503  -0.12444  -0.06516
 Alpha virt. eigenvalues --   -0.06515  -0.04336  -0.00585  -0.00584   0.02208
 Alpha virt. eigenvalues --    0.03494   0.04603   0.04607   0.12255   0.12581
 Alpha virt. eigenvalues --    0.14511   0.14512   0.17155   0.17370   0.17784
 Alpha virt. eigenvalues --    0.18794   0.19405   0.19406   0.26220   0.26221
 Alpha virt. eigenvalues --    0.26499   0.30707   0.30708   0.31237   0.33081
 Alpha virt. eigenvalues --    0.33082   0.35454   0.37490   0.39265   0.39382
 Alpha virt. eigenvalues --    0.41204   0.45335   0.45337   0.53271   0.58389
 Alpha virt. eigenvalues --    0.59499   0.60885   0.60887   0.62979   0.62979
 Alpha virt. eigenvalues --    0.67540   0.69601   0.74286   0.78232   0.78235
 Alpha virt. eigenvalues --    0.79751   0.81560   0.86942   0.89861   0.89863
 Alpha virt. eigenvalues --    0.92765   0.92766   0.93766   0.96616   1.01611
 Alpha virt. eigenvalues --    1.10498   1.14533   1.14535   1.22105   1.30368
 Alpha virt. eigenvalues --    1.30369   1.32221   1.32222   1.32293   1.33118
 Alpha virt. eigenvalues --    1.34451   1.45961   1.45961   1.47959   1.53214
 Alpha virt. eigenvalues --    1.60899   1.60903   1.71174   1.71176   1.73184
 Alpha virt. eigenvalues --    1.73459   1.73703   1.78074   1.91231   1.93459
 Alpha virt. eigenvalues --    1.93464   1.95371   2.19264   2.19265   2.20557
 Alpha virt. eigenvalues --    2.23831   2.42165   2.42564   2.42570   2.55824
 Alpha virt. eigenvalues --    2.62643   2.62915   2.62919   2.65057   2.69051
 Alpha virt. eigenvalues --    2.79561   2.79975   2.79976   2.81478   2.81482
 Alpha virt. eigenvalues --    2.82605   2.84341   2.88711   2.88713   2.88856
 Alpha virt. eigenvalues --    2.89708   2.91382   2.93751   2.94158   2.94159
 Alpha virt. eigenvalues --    2.99928   3.02189   3.06636   3.06639   3.12506
 Alpha virt. eigenvalues --    3.18508   3.20154   3.20155   3.21785   3.22975
 Alpha virt. eigenvalues --    3.23299   3.23300   3.25458   3.25460   3.26051
 Alpha virt. eigenvalues --    3.30575   3.32363   3.35573   3.35773   3.35927
 Alpha virt. eigenvalues --    3.35930   3.43413   3.43418   3.47094   3.49668
 Alpha virt. eigenvalues --    3.50846   3.51366   3.51368   3.54510   3.54512
 Alpha virt. eigenvalues --    3.55378   3.55822   3.56527   3.57388   3.57390
 Alpha virt. eigenvalues --    3.64383   3.70585   3.76086   3.77311   3.81165
 Alpha virt. eigenvalues --    3.81169   3.82542   3.84086   3.84089   3.85370
 Alpha virt. eigenvalues --    3.87102   3.87104   3.88669   3.96367   4.12985
 Alpha virt. eigenvalues --    4.13927   4.13931   4.14890   4.20032   4.21872
 Alpha virt. eigenvalues --    4.21877   4.28199   4.39460   4.48229   4.48230
 Alpha virt. eigenvalues --    4.53963   4.60547   4.60553   4.61116   4.66019
 Alpha virt. eigenvalues --    4.66480   4.66484   4.68584   5.05379   5.06114
 Alpha virt. eigenvalues --    5.06119   5.06972   5.52193   5.54991   5.58737
 Alpha virt. eigenvalues --    5.58749   5.85815   5.86050   5.87106   5.87107
 Alpha virt. eigenvalues --    5.88244   5.88246   5.88293   5.88461   5.99191
 Alpha virt. eigenvalues --    6.00539   6.00540   6.01101   6.11635   6.11642
 Alpha virt. eigenvalues --    6.12129   6.12405   6.14262   6.16310   6.19468
 Alpha virt. eigenvalues --    6.22032   6.22034   6.24456   6.24541   6.24544
 Alpha virt. eigenvalues --    6.38147   6.38148   6.40423   6.45430   6.49455
 Alpha virt. eigenvalues --    6.49877   6.51403   6.51405   6.76153   6.76157
 Alpha virt. eigenvalues --    6.78000   6.82982   7.26805   7.28665   7.28674
 Alpha virt. eigenvalues --    7.31314   9.71855   9.71859   9.85956   9.92739
 Alpha virt. eigenvalues --   10.50389  11.85075  11.91291  12.08823  12.08835
 Alpha virt. eigenvalues --   14.73708  14.75849  14.76283  14.76284  14.76580
 Alpha virt. eigenvalues --   14.90861  14.90861  15.37457  15.37457  15.37477
 Alpha virt. eigenvalues --   15.37770  15.38087  15.38087  15.38502  15.38904
 Alpha virt. eigenvalues --   15.39907
     Molecular Orbital Coefficients:
                           1         2         3         4         5
                           O         O         O         O         O
     Eigenvalues --  -346.01410 -42.28338 -37.37420 -37.36327 -37.36327
   1 1   Zn 1S          1.00072  -0.30970   0.00000  -0.00000  -0.00000
   2        2S         -0.00242   1.04889  -0.00000   0.00000   0.00000
   3        3S          0.00049   0.00089  -0.00000  -0.00000   0.00000
   4        4S         -0.00062  -0.00056  -0.00000  -0.00000   0.00000
   5        5S         -0.00025  -0.00241  -0.00000   0.00000  -0.00000
   6        6S         -0.00004  -0.00309   0.00000   0.00000  -0.00000
   7        7S         -0.00019  -0.00017  -0.00000  -0.00000   0.00000
   8        8PX        -0.00000  -0.00000   0.00001   0.92783  -0.37530
   9        8PY        -0.00000  -0.00000  -0.00001   0.37530   0.92783
  10        8PZ        -0.00000   0.00000   1.00081  -0.00000   0.00002
  11        9PX        -0.00000  -0.00000   0.00000   0.00292  -0.00118
  12        9PY         0.00000   0.00000  -0.00000   0.00118   0.00292
  13        9PZ        -0.00000  -0.00000   0.00248   0.00000   0.00000
  14       10PX        -0.00000  -0.00000  -0.00000   0.00121  -0.00049
  15       10PY         0.00000   0.00000  -0.00000   0.00049   0.00121
  16       10PZ        -0.00000   0.00000   0.00132  -0.00000   0.00000
  17       11PX         0.00000   0.00000  -0.00000  -0.00364   0.00147
  18       11PY        -0.00000  -0.00000   0.00000  -0.00147  -0.00364
  19       11PZ         0.00000   0.00000  -0.00298   0.00000  -0.00000
  20       12PX        -0.00000  -0.00000   0.00000   0.00206  -0.00083
  21       12PY         0.00000   0.00000  -0.00000   0.00083   0.00206
  22       12PZ        -0.00000  -0.00000   0.00205  -0.00000   0.00000
  23       13PX         0.00000   0.00000   0.00000  -0.00034   0.00014
  24       13PY        -0.00000  -0.00000   0.00000  -0.00014  -0.00034
  25       13PZ        -0.00000  -0.00000  -0.00025   0.00000  -0.00000
  26       14D 0       -0.00001  -0.00013  -0.00000  -0.00000  -0.00000
  27       14D+1       -0.00000  -0.00000   0.00000  -0.00000  -0.00000
  28       14D-1        0.00000   0.00000   0.00000   0.00000  -0.00000
  29       14D+2        0.00000  -0.00000  -0.00000  -0.00000  -0.00000
  30       14D-2        0.00000  -0.00000  -0.00000   0.00000   0.00000
  31       15D 0       -0.00001  -0.00007  -0.00000  -0.00000   0.00000
  32       15D+1       -0.00000  -0.00000   0.00000  -0.00000  -0.00000
  33       15D-1        0.00000   0.00000   0.00000   0.00000  -0.00000
  34       15D+2        0.00000  -0.00000  -0.00000  -0.00000  -0.00000
  35       15D-2        0.00000  -0.00000  -0.00000  -0.00000   0.00000
  36       16D 0        0.00000   0.00021   0.00000   0.00000   0.00000
  37       16D+1        0.00000   0.00000  -0.00000   0.00000   0.00000
  38       16D-1       -0.00000  -0.00000  -0.00000  -0.00000   0.00000
  39       16D+2       -0.00000   0.00000   0.00000  -0.00000   0.00000
  40       16D-2        0.00000   0.00000   0.00000  -0.00000  -0.00000
  41       17D 0        0.00005   0.00007  -0.00000  -0.00000   0.00000
  42       17D+1       -0.00000  -0.00000   0.00000   0.00000   0.00000
  43       17D-1       -0.00000   0.00000  -0.00000  -0.00000   0.00000
  44       17D+2       -0.00000  -0.00000  -0.00000  -0.00000   0.00000
  45       17D-2       -0.00000  -0.00000  -0.00000  -0.00000   0.00000
  46       18F 0        0.00000   0.00000   0.00004  -0.00000   0.00000
  47       18F+1       -0.00000   0.00000   0.00000   0.00003  -0.00001
  48       18F-1       -0.00000  -0.00000  -0.00000   0.00001   0.00003
  49       18F+2        0.00000   0.00000   0.00000   0.00000   0.00000
  50       18F-2        0.00000   0.00000   0.00000  -0.00000  -0.00000
  51       18F+3        0.00000   0.00000   0.00000   0.00001   0.00002
  52       18F-3       -0.00000   0.00000   0.00000   0.00002  -0.00001
  53       19F 0       -0.00000  -0.00000  -0.00001   0.00000  -0.00000
  54       19F+1        0.00000  -0.00000   0.00000   0.00002  -0.00001
  55       19F-1        0.00000   0.00000   0.00000   0.00001   0.00002
  56       19F+2       -0.00000  -0.00000  -0.00000  -0.00000  -0.00000
  57       19F-2       -0.00000  -0.00000  -0.00000  -0.00000  -0.00000
  58       19F+3       -0.00000  -0.00000   0.00000  -0.00002  -0.00003
  59       19F-3        0.00000   0.00000  -0.00000  -0.00003   0.00002
  60       20G 0       -0.00000  -0.00000   0.00000  -0.00000   0.00000
  61       20G+1        0.00000   0.00000   0.00000  -0.00000  -0.00000
  62       20G-1       -0.00000   0.00000  -0.00000   0.00000  -0.00000
  63       20G+2        0.00000  -0.00000   0.00000   0.00000  -0.00000
  64       20G-2        0.00000  -0.00000   0.00000   0.00000   0.00000
  65       20G+3        0.00000   0.00000   0.00000  -0.00000   0.00000
  66       20G-3       -0.00000  -0.00000   0.00000   0.00000   0.00000
  67       20G+4       -0.00000   0.00000  -0.00000   0.00000  -0.00000
  68       20G-4       -0.00000   0.00001   0.00000   0.00000   0.00000
  69 2   O  1S          0.00000   0.00000   0.00000  -0.00001   0.00000
  70        2S          0.00002   0.00000   0.00000  -0.00001   0.00000
  71        3S         -0.00001  -0.00001   0.00000   0.00005  -0.00000
  72        4S          0.00005   0.00010  -0.00000  -0.00004   0.00000
  73        5PX        -0.00000  -0.00000  -0.00000   0.00002  -0.00000
  74        5PY        -0.00000  -0.00000   0.00000   0.00001  -0.00000
  75        5PZ        -0.00000  -0.00000  -0.00000   0.00000   0.00000
  76        6PX        -0.00001  -0.00001  -0.00000   0.00001  -0.00001
  77        6PY        -0.00000  -0.00000   0.00000   0.00000   0.00001
  78        6PZ         0.00000   0.00000  -0.00000   0.00000   0.00001
  79        7PX         0.00005   0.00010   0.00001  -0.00039   0.00006
  80        7PY         0.00002   0.00003  -0.00003  -0.00014  -0.00010
  81        7PZ         0.00000   0.00000  -0.00008  -0.00000  -0.00001
  82        8D 0        0.00000   0.00001  -0.00000  -0.00003   0.00000
  83        8D+1        0.00000   0.00000  -0.00002   0.00000  -0.00001
  84        8D-1       -0.00000  -0.00000  -0.00001  -0.00000  -0.00000
  85        8D+2       -0.00001  -0.00001   0.00000   0.00004   0.00001
  86        8D-2       -0.00000  -0.00001  -0.00000   0.00002  -0.00002
  87        9D 0       -0.00002  -0.00002   0.00000   0.00011  -0.00001
  88        9D+1       -0.00000  -0.00000   0.00006   0.00001   0.00003
  89        9D-1        0.00001   0.00001   0.00002  -0.00001   0.00001
  90        9D+2        0.00002   0.00003  -0.00001  -0.00015  -0.00005
  91        9D-2        0.00001   0.00002   0.00002  -0.00010   0.00009
  92       10F 0       -0.00000  -0.00000  -0.00001   0.00000   0.00001
  93       10F+1       -0.00000  -0.00000   0.00000   0.00003  -0.00000
  94       10F-1       -0.00000  -0.00000  -0.00000   0.00001   0.00000
  95       10F+2        0.00000   0.00000   0.00000   0.00000  -0.00000
  96       10F-2       -0.00000  -0.00000   0.00000  -0.00000  -0.00000
  97       10F+3        0.00000   0.00000   0.00001  -0.00002  -0.00000
  98       10F-3        0.00000   0.00000  -0.00000  -0.00003   0.00001
  99 3   H  1S          0.00000   0.00000   0.00002  -0.00001   0.00004
 100        2S         -0.00002  -0.00002   0.00004  -0.00001   0.00003
 101        3S          0.00002   0.00002   0.00003  -0.00012   0.00004
 102        4PX         0.00000   0.00000   0.00001  -0.00002   0.00002
 103        4PY         0.00001   0.00001  -0.00000  -0.00003  -0.00000
 104        4PZ         0.00000   0.00000  -0.00000  -0.00002  -0.00001
 105        5PX        -0.00002  -0.00003  -0.00000   0.00009  -0.00004
 106        5PY        -0.00001  -0.00001  -0.00002   0.00005  -0.00001
 107        5PZ         0.00000   0.00000   0.00001   0.00002  -0.00003
 108        6D 0        0.00000   0.00000  -0.00000  -0.00001   0.00002
 109        6D+1        0.00000   0.00000   0.00000  -0.00001   0.00000
 110        6D-1       -0.00000  -0.00001  -0.00000   0.00003   0.00000
 111        6D+2       -0.00000  -0.00000  -0.00001   0.00000  -0.00001
 112        6D-2        0.00000   0.00000  -0.00001   0.00000  -0.00000
 113 4   O  1S          0.00000   0.00000   0.00000   0.00001  -0.00000
 114        2S          0.00002   0.00000   0.00000   0.00001  -0.00000
 115        3S         -0.00001  -0.00001   0.00000  -0.00005   0.00000
 116        4S          0.00005   0.00010  -0.00000   0.00004  -0.00000
 117        5PX         0.00000   0.00000   0.00000   0.00002  -0.00000
 118        5PY         0.00000   0.00000  -0.00000   0.00001  -0.00000
 119        5PZ        -0.00000  -0.00000  -0.00000  -0.00000  -0.00000
 120        6PX         0.00001   0.00001   0.00000   0.00001  -0.00001
 121        6PY         0.00000   0.00000  -0.00000   0.00000   0.00001
 122        6PZ         0.00000   0.00000  -0.00000  -0.00000  -0.00001
 123        7PX        -0.00005  -0.00010  -0.00001  -0.00039   0.00006
 124        7PY        -0.00002  -0.00003   0.00003  -0.00014  -0.00010
 125        7PZ         0.00000   0.00000  -0.00008   0.00000   0.00001
 126        8D 0        0.00000   0.00001  -0.00000   0.00003  -0.00000
 127        8D+1       -0.00000  -0.00000   0.00002   0.00000  -0.00001
 128        8D-1        0.00000   0.00000   0.00001  -0.00000  -0.00000
 129        8D+2       -0.00001  -0.00001   0.00000  -0.00004  -0.00001
 130        8D-2       -0.00000  -0.00001  -0.00000  -0.00002   0.00002
 131        9D 0       -0.00002  -0.00002   0.00000  -0.00011   0.00001
 132        9D+1        0.00000   0.00000  -0.00006   0.00001   0.00003
 133        9D-1       -0.00001  -0.00001  -0.00002  -0.00001   0.00001
 134        9D+2        0.00002   0.00003  -0.00001   0.00015   0.00005
 135        9D-2        0.00001   0.00002   0.00002   0.00010  -0.00009
 136       10F 0       -0.00000  -0.00000  -0.00001  -0.00000  -0.00001
 137       10F+1        0.00000   0.00000  -0.00000   0.00003  -0.00000
 138       10F-1        0.00000   0.00000   0.00000   0.00001   0.00000
 139       10F+2        0.00000   0.00000   0.00000  -0.00000   0.00000
 140       10F-2       -0.00000  -0.00000   0.00000   0.00000   0.00000
 141       10F+3       -0.00000  -0.00000  -0.00001  -0.00002  -0.00000
 142       10F-3       -0.00000  -0.00000   0.00000  -0.00003   0.00001
 143 5   H  1S          0.00000   0.00000  -0.00002   0.00001   0.00003
 144        2S         -0.00002  -0.00002  -0.00004   0.00001   0.00003
 145        3S          0.00002   0.00002  -0.00003   0.00012   0.00002
 146        4PX        -0.00001  -0.00001   0.00001  -0.00004  -0.00001
 147        4PY         0.00000   0.00000   0.00001   0.00001  -0.00001
 148        4PZ        -0.00000  -0.00000  -0.00000  -0.00002   0.00001
 149        5PX         0.00002   0.00003  -0.00002   0.00010   0.00002
 150        5PY         0.00001   0.00001   0.00002   0.00001   0.00002
 151        5PZ        -0.00000  -0.00000   0.00001   0.00002   0.00003
 152        6D 0        0.00000   0.00000   0.00000   0.00001   0.00002
 153        6D+1        0.00000  -0.00000  -0.00000  -0.00001   0.00000
 154        6D-1        0.00000   0.00001  -0.00000   0.00003  -0.00000
 155        6D+2        0.00000   0.00000   0.00001  -0.00000  -0.00001
 156        6D-2       -0.00000  -0.00000   0.00001  -0.00000  -0.00001
 157 6   O  1S          0.00000   0.00000   0.00000  -0.00000  -0.00001
 158        2S          0.00002   0.00000   0.00000  -0.00000  -0.00001
 159        3S         -0.00001  -0.00001   0.00000   0.00000   0.00005
 160        4S          0.00005   0.00010  -0.00000  -0.00000  -0.00004
 161        5PX         0.00000   0.00000  -0.00000  -0.00000  -0.00001
 162        5PY        -0.00000  -0.00000  -0.00000   0.00000   0.00002
 163        5PZ        -0.00000  -0.00000  -0.00000  -0.00000   0.00000
 164        6PX         0.00000   0.00000  -0.00000   0.00001  -0.00000
 165        6PY        -0.00001  -0.00001  -0.00000   0.00001   0.00001
 166        6PZ         0.00000   0.00000  -0.00000  -0.00001   0.00000
 167        7PX        -0.00002  -0.00003   0.00003  -0.00010   0.00014
 168        7PY         0.00005   0.00010   0.00001  -0.00006  -0.00039
 169        7PZ         0.00000   0.00000  -0.00008   0.00001  -0.00000
 170        8D 0        0.00000   0.00001  -0.00000  -0.00000  -0.00003
 171        8D+1        0.00000   0.00000   0.00001  -0.00000   0.00000
 172        8D-1        0.00000   0.00000  -0.00002   0.00001   0.00000
 173        8D+2        0.00001   0.00001  -0.00000   0.00001  -0.00004
 174        8D-2        0.00000   0.00001   0.00000  -0.00002  -0.00002
 175        9D 0       -0.00002  -0.00002   0.00000   0.00001   0.00011
 176        9D+1       -0.00001  -0.00001  -0.00002   0.00001   0.00001
 177        9D-1       -0.00000  -0.00000   0.00006  -0.00003   0.00001
 178        9D+2       -0.00002  -0.00003   0.00001  -0.00005   0.00015
 179        9D-2       -0.00001  -0.00002  -0.00002   0.00009   0.00010
 180       10F 0       -0.00000  -0.00000  -0.00001  -0.00001   0.00000
 181       10F+1        0.00000   0.00000   0.00000   0.00000  -0.00001
 182       10F-1       -0.00000  -0.00000   0.00000   0.00000   0.00003
 183       10F+2       -0.00000  -0.00000  -0.00000  -0.00000  -0.00000
 184       10F-2        0.00000   0.00000  -0.00000  -0.00000   0.00000
 185       10F+3        0.00000   0.00000  -0.00000  -0.00001  -0.00003
 186       10F-3       -0.00000  -0.00000  -0.00001  -0.00000   0.00002
 187 7   H  1S          0.00000   0.00000   0.00002  -0.00004  -0.00001
 188        2S         -0.00002  -0.00002   0.00004  -0.00003  -0.00001
 189        3S          0.00002   0.00002   0.00003  -0.00004  -0.00012
 190        4PX        -0.00001  -0.00001   0.00000  -0.00000   0.00003
 191        4PY         0.00000   0.00000   0.00001  -0.00002  -0.00002
 192        4PZ         0.00000   0.00000  -0.00000   0.00001  -0.00002
 193        5PX         0.00001   0.00001   0.00002  -0.00001  -0.00005
 194        5PY        -0.00002  -0.00003  -0.00000   0.00004   0.00009
 195        5PZ         0.00000   0.00000   0.00001   0.00003   0.00002
 196        6D 0        0.00000   0.00000  -0.00000  -0.00002  -0.00001
 197        6D+1        0.00000   0.00001   0.00000   0.00000  -0.00003
 198        6D-1        0.00000   0.00000   0.00000  -0.00000  -0.00001
 199        6D+2        0.00000   0.00000   0.00001  -0.00001  -0.00000
 200        6D-2       -0.00000  -0.00000   0.00001  -0.00000  -0.00000
 201 8   O  1S          0.00000   0.00000   0.00000   0.00000   0.00001
 202        2S          0.00002   0.00000   0.00000   0.00000   0.00001
 203        3S         -0.00001  -0.00001   0.00000  -0.00000  -0.00005
 204        4S          0.00005   0.00010  -0.00000   0.00000   0.00004
 205        5PX        -0.00000  -0.00000   0.00000  -0.00000  -0.00001
 206        5PY         0.00000   0.00000   0.00000   0.00000   0.00002
 207        5PZ        -0.00000  -0.00000  -0.00000   0.00000  -0.00000
 208        6PX        -0.00000  -0.00000   0.00000   0.00001  -0.00000
 209        6PY         0.00001   0.00001   0.00000   0.00001   0.00001
 210        6PZ         0.00000   0.00000  -0.00000   0.00001  -0.00000
 211        7PX         0.00002   0.00003  -0.00003  -0.00010   0.00014
 212        7PY        -0.00005  -0.00010  -0.00001  -0.00006  -0.00039
 213        7PZ         0.00000   0.00000  -0.00008  -0.00001   0.00000
 214        8D 0        0.00000   0.00001  -0.00000   0.00000   0.00003
 215        8D+1       -0.00000  -0.00000  -0.00001  -0.00000   0.00000
 216        8D-1       -0.00000  -0.00000   0.00002   0.00001   0.00000
 217        8D+2        0.00001   0.00001  -0.00000  -0.00001   0.00004
 218        8D-2        0.00000   0.00001   0.00000   0.00002   0.00002
 219        9D 0       -0.00002  -0.00002   0.00000  -0.00001  -0.00011
 220        9D+1        0.00001   0.00001   0.00002   0.00001   0.00001
 221        9D-1        0.00000   0.00000  -0.00006  -0.00003   0.00001
 222        9D+2       -0.00002  -0.00003   0.00001   0.00005  -0.00015
 223        9D-2       -0.00001  -0.00002  -0.00002  -0.00009  -0.00010
 224       10F 0       -0.00000  -0.00000  -0.00001   0.00001  -0.00000
 225       10F+1       -0.00000  -0.00000  -0.00000   0.00000  -0.00001
 226       10F-1        0.00000   0.00000  -0.00000   0.00000   0.00003
 227       10F+2       -0.00000  -0.00000  -0.00000   0.00000   0.00000
 228       10F-2        0.00000   0.00000  -0.00000   0.00000  -0.00000
 229       10F+3       -0.00000  -0.00000   0.00000  -0.00001  -0.00003
 230       10F-3        0.00000   0.00000   0.00001  -0.00000   0.00002
 231 9   H  1S          0.00000   0.00000   0.00002   0.00004   0.00001
 232        2S         -0.00002  -0.00002   0.00004   0.00003   0.00001
 233        3S          0.00002   0.00002   0.00003   0.00004   0.00012
 234        4PX         0.00001   0.00001  -0.00000  -0.00000   0.00003
 235        4PY        -0.00000  -0.00000  -0.00001  -0.00002  -0.00002
 236        4PZ         0.00000   0.00000  -0.00000  -0.00001   0.00002
 237        5PX        -0.00001  -0.00001  -0.00002  -0.00001  -0.00005
 238        5PY         0.00002   0.00003   0.00000   0.00004   0.00009
 239        5PZ         0.00000   0.00000   0.00001  -0.00003  -0.00002
 240        6D 0        0.00000   0.00000  -0.00000   0.00002   0.00001
 241        6D+1       -0.00000  -0.00001  -0.00000   0.00000  -0.00003
 242        6D-1       -0.00000  -0.00000  -0.00000  -0.00000  -0.00001
 243        6D+2        0.00000   0.00000   0.00001   0.00001   0.00000
 244        6D-2       -0.00000  -0.00000   0.00001   0.00000   0.00000
 245 10  H  1S          0.00000   0.00000  -0.00002  -0.00003   0.00001
 246        2S         -0.00002  -0.00002  -0.00004  -0.00003   0.00001
 247        3S          0.00002   0.00002  -0.00003  -0.00002   0.00012
 248        4PX        -0.00000  -0.00000  -0.00001  -0.00001  -0.00001
 249        4PY        -0.00001  -0.00001   0.00001   0.00001  -0.00004
 250        4PZ        -0.00000  -0.00000  -0.00000  -0.00001  -0.00002
 251        5PX        -0.00001  -0.00001  -0.00002   0.00002  -0.00001
 252        5PY         0.00002   0.00003  -0.00002  -0.00002   0.00010
 253        5PZ        -0.00000  -0.00000   0.00001  -0.00003   0.00002
 254        6D 0        0.00000   0.00000   0.00000  -0.00002   0.00001
 255        6D+1       -0.00000  -0.00001   0.00000  -0.00000  -0.00003
 256        6D-1        0.00000  -0.00000  -0.00000  -0.00000  -0.00001
 257        6D+2       -0.00000  -0.00000  -0.00001  -0.00001   0.00000
 258        6D-2        0.00000   0.00000  -0.00001  -0.00001   0.00000
 259 11  H  1S          0.00000   0.00000   0.00002   0.00001  -0.00004
 260        2S         -0.00002  -0.00002   0.00004   0.00001  -0.00003
 261        3S          0.00002   0.00002   0.00003   0.00012  -0.00004
 262        4PX        -0.00000  -0.00000  -0.00001  -0.00002   0.00002
 263        4PY        -0.00001  -0.00001   0.00000  -0.00003  -0.00000
 264        4PZ         0.00000   0.00000  -0.00000   0.00002   0.00001
 265        5PX         0.00002   0.00003   0.00000   0.00009  -0.00004
 266        5PY         0.00001   0.00001   0.00002   0.00005  -0.00001
 267        5PZ         0.00000   0.00000   0.00001  -0.00002   0.00003
 268        6D 0        0.00000   0.00000  -0.00000   0.00001  -0.00002
 269        6D+1       -0.00000  -0.00000  -0.00000  -0.00001   0.00000
 270        6D-1        0.00000   0.00001   0.00000   0.00003   0.00000
 271        6D+2       -0.00000  -0.00000  -0.00001  -0.00000   0.00001
 272        6D-2        0.00000   0.00000  -0.00001  -0.00000   0.00000
 273 12  H  1S          0.00000   0.00000  -0.00002   0.00003  -0.00001
 274        2S         -0.00002  -0.00002  -0.00004   0.00003  -0.00001
 275        3S          0.00002   0.00002  -0.00003   0.00002  -0.00012
 276        4PX         0.00000   0.00000   0.00001  -0.00001  -0.00001
 277        4PY         0.00001   0.00001  -0.00001   0.00001  -0.00004
 278        4PZ        -0.00000  -0.00000  -0.00000   0.00001   0.00002
 279        5PX         0.00001   0.00001   0.00002   0.00002  -0.00001
 280        5PY        -0.00002  -0.00003   0.00002  -0.00002   0.00010
 281        5PZ        -0.00000  -0.00000   0.00001   0.00003  -0.00002
 282        6D 0        0.00000   0.00000   0.00000   0.00002  -0.00001
 283        6D+1        0.00000   0.00001  -0.00000  -0.00000  -0.00003
 284        6D-1       -0.00000   0.00000   0.00000  -0.00000  -0.00001
 285        6D+2       -0.00000  -0.00000  -0.00001   0.00001  -0.00000
 286        6D-2        0.00000   0.00000  -0.00001   0.00001  -0.00000
 287 13  H  1S          0.00000   0.00000  -0.00002  -0.00001  -0.00003
 288        2S         -0.00002  -0.00002  -0.00004  -0.00001  -0.00003
 289        3S          0.00002   0.00002  -0.00003  -0.00012  -0.00002
 290        4PX         0.00001   0.00001  -0.00001  -0.00004  -0.00001
 291        4PY        -0.00000  -0.00000  -0.00001   0.00001  -0.00001
 292        4PZ        -0.00000  -0.00000  -0.00000   0.00002  -0.00001
 293        5PX        -0.00002  -0.00003   0.00002   0.00010   0.00002
 294        5PY        -0.00001  -0.00001  -0.00002   0.00001   0.00002
 295        5PZ        -0.00000  -0.00000   0.00001  -0.00002  -0.00002
 296        6D 0        0.00000   0.00000   0.00000  -0.00001  -0.00002
 297        6D+1       -0.00000   0.00000   0.00000  -0.00001   0.00000
 298        6D-1       -0.00000  -0.00001   0.00000   0.00003  -0.00000
 299        6D+2        0.00000   0.00000   0.00001   0.00000   0.00001
 300        6D-2       -0.00000  -0.00000   0.00001   0.00000   0.00001
                           6         7         8         9        10
                           O         O         O         O         O
     Eigenvalues --   -19.15400 -19.15400 -19.15399 -19.15399  -5.06123
   1 1   Zn 1S          0.00001   0.00000   0.00000   0.00000   0.11645
   2        2S         -0.00001  -0.00000  -0.00000  -0.00000  -0.44866
   3        3S         -0.00005  -0.00001  -0.00003  -0.00003   0.27449
   4        4S         -0.00119  -0.00022  -0.00060  -0.00061  -0.00072
   5        5S         -0.00016  -0.00003  -0.00008  -0.00008   1.01977
   6        6S          0.00021   0.00004   0.00011   0.00011   0.75247
   7        7S         -0.00014  -0.00003  -0.00007  -0.00007  -0.00113
   8        8PX         0.00001   0.00001  -0.00001  -0.00000   0.00000
   9        8PY        -0.00001   0.00001  -0.00000   0.00001   0.00000
  10        8PZ         0.00000  -0.00000   0.00000   0.00000  -0.00000
  11        9PX         0.00016   0.00013  -0.00029  -0.00008  -0.00000
  12        9PY        -0.00014   0.00020  -0.00006   0.00026  -0.00000
  13        9PZ         0.00000  -0.00000   0.00000   0.00000  -0.00000
  14       10PX         0.00018   0.00014  -0.00032  -0.00009   0.00000
  15       10PY        -0.00016   0.00022  -0.00007   0.00029  -0.00000
  16       10PZ        -0.00000  -0.00000  -0.00000  -0.00000  -0.00000
  17       11PX        -0.00024  -0.00019   0.00043   0.00012  -0.00000
  18       11PY         0.00021  -0.00029   0.00009  -0.00039   0.00000
  19       11PZ        -0.00000   0.00000  -0.00000   0.00000   0.00000
  20       12PX         0.00003   0.00002  -0.00005  -0.00001   0.00000
  21       12PY        -0.00003   0.00004  -0.00001   0.00005   0.00000
  22       12PZ         0.00000  -0.00000   0.00000   0.00000  -0.00000
  23       13PX        -0.00001  -0.00000   0.00001   0.00000  -0.00000
  24       13PY         0.00000  -0.00001   0.00000  -0.00001   0.00000
  25       13PZ         0.00000  -0.00000   0.00000   0.00000   0.00000
  26       14D 0        0.00003   0.00001   0.00002   0.00002   0.00116
  27       14D+1        0.00001  -0.00002   0.00000  -0.00002   0.00000
  28       14D-1        0.00001   0.00001  -0.00002  -0.00001  -0.00000
  29       14D+2        0.00000  -0.00003  -0.00002   0.00002   0.00000
  30       14D-2        0.00000  -0.00002  -0.00001   0.00001   0.00000
  31       15D 0       -0.00004  -0.00001  -0.00002  -0.00002  -0.00048
  32       15D+1        0.00003  -0.00004   0.00001  -0.00005  -0.00000
  33       15D-1        0.00003   0.00003  -0.00006  -0.00002   0.00000
  34       15D+2       -0.00002   0.00015   0.00009  -0.00011   0.00000
  35       15D-2       -0.00001   0.00011   0.00006  -0.00008  -0.00000
  36       16D 0       -0.00001  -0.00000  -0.00001  -0.00001   0.00081
  37       16D+1       -0.00000   0.00001  -0.00000   0.00001   0.00000
  38       16D-1       -0.00000  -0.00000   0.00001   0.00000  -0.00000
  39       16D+2       -0.00000   0.00001   0.00000  -0.00000   0.00000
  40       16D-2       -0.00000   0.00001   0.00000  -0.00000   0.00000
  41       17D 0       -0.00039  -0.00007  -0.00020  -0.00020  -0.00083
  42       17D+1        0.00004  -0.00006   0.00002  -0.00008  -0.00000
  43       17D-1        0.00005   0.00004  -0.00009  -0.00002   0.00000
  44       17D+2       -0.00013   0.00108   0.00061  -0.00074   0.00000
  45       17D-2       -0.00010   0.00081   0.00045  -0.00055   0.00000
  46       18F 0       -0.00000  -0.00000  -0.00000  -0.00000  -0.00000
  47       18F+1       -0.00000  -0.00000   0.00001   0.00000   0.00000
  48       18F-1        0.00000  -0.00001   0.00000  -0.00001  -0.00000
  49       18F+2        0.00000  -0.00000  -0.00000   0.00000   0.00000
  50       18F-2       -0.00000   0.00000   0.00000  -0.00000   0.00000
  51       18F+3       -0.00000   0.00001  -0.00000   0.00001   0.00000
  52       18F-3        0.00001   0.00000  -0.00001  -0.00001   0.00000
  53       19F 0        0.00000   0.00000   0.00000   0.00000   0.00000
  54       19F+1        0.00002   0.00001  -0.00003  -0.00001  -0.00000
  55       19F-1       -0.00001   0.00002  -0.00001   0.00003   0.00000
  56       19F+2       -0.00000   0.00000   0.00000  -0.00000  -0.00000
  57       19F-2        0.00000  -0.00000  -0.00000   0.00000   0.00000
  58       19F+3        0.00001  -0.00003   0.00002  -0.00003  -0.00000
  59       19F-3       -0.00002  -0.00001   0.00003   0.00002  -0.00000
  60       20G 0        0.00000   0.00000   0.00000   0.00000  -0.00002
  61       20G+1       -0.00000   0.00000  -0.00000   0.00000   0.00000
  62       20G-1       -0.00000  -0.00000   0.00000   0.00000   0.00000
  63       20G+2        0.00000  -0.00000  -0.00000   0.00000  -0.00000
  64       20G-2        0.00000  -0.00000  -0.00000   0.00000  -0.00000
  65       20G+3       -0.00000  -0.00000   0.00000   0.00000   0.00000
  66       20G-3       -0.00000   0.00000  -0.00000   0.00000  -0.00000
  67       20G+4        0.00000   0.00000   0.00000   0.00000   0.00003
  68       20G-4        0.00000   0.00000   0.00000   0.00000   0.00008
  69 2   O  1S          0.55303   0.78563  -0.15308  -0.03038  -0.00003
  70        2S         -0.00397  -0.00574   0.00123   0.00026   0.00026
  71        3S          0.02897   0.04120  -0.00802  -0.00162  -0.00006
  72        4S          0.00398   0.00491  -0.00183   0.00027  -0.00023
  73        5PX        -0.00042  -0.00059   0.00012   0.00002   0.00001
  74        5PY        -0.00014  -0.00019   0.00004   0.00001   0.00000
  75        5PZ        -0.00001   0.00001   0.00000   0.00001   0.00000
  76        6PX        -0.00096  -0.00131   0.00029   0.00006   0.00008
  77        6PY        -0.00027  -0.00047   0.00009  -0.00005   0.00003
  78        6PZ         0.00005  -0.00004  -0.00001  -0.00007  -0.00000
  79        7PX        -0.00103  -0.00158  -0.00019   0.00024  -0.00083
  80        7PY        -0.00026  -0.00059  -0.00008  -0.00004  -0.00028
  81        7PZ         0.00002  -0.00001  -0.00000  -0.00003  -0.00000
  82        8D 0       -0.00005  -0.00005   0.00000  -0.00000   0.00004
  83        8D+1       -0.00004  -0.00004   0.00001   0.00001  -0.00001
  84        8D-1        0.00010   0.00015  -0.00002  -0.00001   0.00002
  85        8D+2        0.00001   0.00004   0.00001  -0.00000  -0.00007
  86        8D-2        0.00002   0.00002   0.00001  -0.00002  -0.00005
  87        9D 0        0.00002  -0.00001   0.00005   0.00001  -0.00029
  88        9D+1       -0.00015  -0.00019   0.00005  -0.00000   0.00004
  89        9D-1        0.00045   0.00057  -0.00015   0.00002  -0.00012
  90        9D+2       -0.00008  -0.00028  -0.00004   0.00001   0.00049
  91        9D-2       -0.00013  -0.00015  -0.00001   0.00011   0.00036
  92       10F 0       -0.00001   0.00001   0.00000   0.00001  -0.00000
  93       10F+1       -0.00004  -0.00005   0.00002  -0.00000  -0.00007
  94       10F-1       -0.00002  -0.00002   0.00001   0.00000  -0.00002
  95       10F+2        0.00011   0.00015  -0.00004  -0.00000  -0.00001
  96       10F-2       -0.00015  -0.00021   0.00005   0.00000   0.00001
  97       10F+3        0.00007   0.00009  -0.00003   0.00000   0.00005
  98       10F-3        0.00010   0.00013  -0.00004  -0.00000   0.00007
  99 3   H  1S          0.00015   0.00022  -0.00003   0.00001   0.00005
 100        2S         -0.00236  -0.00289   0.00069   0.00009  -0.00031
 101        3S         -0.00020  -0.00025   0.00001   0.00004   0.00003
 102        4PX        -0.00027  -0.00038   0.00007   0.00003   0.00006
 103        4PY         0.00011   0.00011  -0.00004  -0.00001   0.00005
 104        4PZ         0.00015   0.00019  -0.00005  -0.00001   0.00002
 105        5PX        -0.00100  -0.00116   0.00035   0.00001   0.00005
 106        5PY         0.00049   0.00065  -0.00011  -0.00001   0.00022
 107        5PZ         0.00063   0.00080  -0.00017  -0.00007   0.00015
 108        6D 0        0.00010   0.00013  -0.00003   0.00001  -0.00003
 109        6D+1        0.00051   0.00069  -0.00015  -0.00004   0.00000
 110        6D-1       -0.00021  -0.00027   0.00006   0.00001  -0.00009
 111        6D+2       -0.00033  -0.00044   0.00009   0.00002   0.00009
 112        6D-2        0.00040   0.00054  -0.00011  -0.00001   0.00003
 113 4   O  1S          0.13853   0.08657   0.95736  -0.06475  -0.00003
 114        2S         -0.00090  -0.00057  -0.00699   0.00051   0.00026
 115        3S          0.00724   0.00456   0.05018  -0.00342  -0.00006
 116        4S          0.00086  -0.00035   0.00652   0.00001  -0.00023
 117        5PX         0.00011   0.00006   0.00072  -0.00005  -0.00001
 118        5PY         0.00003   0.00002   0.00024  -0.00001  -0.00000
 119        5PZ         0.00001  -0.00001  -0.00000  -0.00001   0.00000
 120        6PX         0.00022   0.00013   0.00163  -0.00008  -0.00008
 121        6PY         0.00012   0.00001   0.00053  -0.00010  -0.00003
 122        6PZ        -0.00005   0.00004   0.00001   0.00007   0.00000
 123        7PX         0.00041   0.00065   0.00173  -0.00021   0.00083
 124        7PY         0.00022   0.00015   0.00056  -0.00019   0.00028
 125        7PZ        -0.00002   0.00001   0.00000   0.00003   0.00000
 126        8D 0       -0.00002  -0.00001  -0.00007  -0.00000   0.00004
 127        8D+1        0.00000   0.00001   0.00006   0.00000   0.00001
 128        8D-1       -0.00003  -0.00002  -0.00017   0.00002  -0.00002
 129        8D+2        0.00001   0.00002   0.00003  -0.00002  -0.00007
 130        8D-2       -0.00000   0.00002   0.00002   0.00000  -0.00005
 131        9D 0        0.00004   0.00003  -0.00001   0.00001  -0.00029
 132        9D+1        0.00004   0.00001   0.00024   0.00000  -0.00004
 133        9D-1       -0.00012  -0.00001  -0.00073   0.00001   0.00012
 134        9D+2       -0.00007  -0.00008  -0.00025   0.00012   0.00049
 135        9D-2        0.00002  -0.00012  -0.00020  -0.00002   0.00036
 136       10F 0        0.00001  -0.00001  -0.00000  -0.00001  -0.00000
 137       10F+1        0.00001  -0.00000   0.00007   0.00000   0.00007
 138       10F-1        0.00000   0.00000   0.00002   0.00000   0.00002
 139       10F+2        0.00003   0.00001   0.00019  -0.00001  -0.00001
 140       10F-2       -0.00004  -0.00001  -0.00026   0.00001   0.00001
 141       10F+3       -0.00002  -0.00000  -0.00012   0.00001  -0.00005
 142       10F-3       -0.00002  -0.00000  -0.00017   0.00000  -0.00007
 143 5   H  1S          0.00004   0.00003   0.00026   0.00000   0.00005
 144        2S         -0.00072  -0.00011  -0.00372   0.00023  -0.00031
 145        3S         -0.00008  -0.00005  -0.00030   0.00005   0.00004
 146        4PX         0.00004   0.00004   0.00028  -0.00003  -0.00008
 147        4PY         0.00007   0.00001   0.00041  -0.00004   0.00000
 148        4PZ        -0.00004  -0.00000  -0.00024   0.00002  -0.00002
 149        5PX         0.00015  -0.00007   0.00076  -0.00003  -0.00017
 150        5PY         0.00029   0.00004   0.00157  -0.00007   0.00014
 151        5PZ        -0.00019  -0.00005  -0.00101   0.00011  -0.00015
 152        6D 0        0.00003   0.00001   0.00017   0.00001  -0.00003
 153        6D+1        0.00007   0.00004   0.00048  -0.00004  -0.00005
 154        6D-1        0.00013   0.00005   0.00078  -0.00006   0.00008
 155        6D+2        0.00008   0.00003   0.00049  -0.00002   0.00006
 156        6D-2       -0.00012  -0.00005  -0.00072   0.00005   0.00008
 157 6   O  1S          0.08479  -0.01166   0.05428   0.96806  -0.00003
 158        2S         -0.00049   0.00006  -0.00036  -0.00706   0.00026
 159        3S          0.00443  -0.00064   0.00282   0.05075  -0.00006
 160        4S          0.00023   0.00080   0.00079   0.00648  -0.00023
 161        5PX         0.00002   0.00000   0.00001   0.00024  -0.00000
 162        5PY        -0.00006   0.00000  -0.00005  -0.00073   0.00001
 163        5PZ        -0.00001  -0.00001   0.00001   0.00000   0.00000
 164        6PX         0.00002  -0.00004   0.00010   0.00054  -0.00003
 165        6PY        -0.00014  -0.00002  -0.00008  -0.00164   0.00008
 166        6PZ         0.00003   0.00005  -0.00007   0.00000   0.00000
 167        7PX         0.00011  -0.00021   0.00010   0.00059   0.00028
 168        7PY        -0.00048   0.00039   0.00007  -0.00180  -0.00083
 169        7PZ         0.00001   0.00002  -0.00003   0.00000   0.00000
 170        8D 0       -0.00002   0.00000  -0.00001  -0.00007   0.00004
 171        8D+1       -0.00002   0.00001  -0.00001  -0.00018  -0.00002
 172        8D-1       -0.00001  -0.00000   0.00000  -0.00006  -0.00001
 173        8D+2       -0.00001   0.00002  -0.00000  -0.00003   0.00007
 174        8D-2       -0.00001   0.00001   0.00002  -0.00003   0.00005
 175        9D 0        0.00005  -0.00001   0.00001  -0.00001  -0.00029
 176        9D+1       -0.00006  -0.00005  -0.00008  -0.00073   0.00012
 177        9D-1       -0.00002  -0.00002  -0.00002  -0.00024   0.00004
 178        9D+2        0.00003  -0.00012   0.00002   0.00027  -0.00049
 179        9D-2        0.00006  -0.00002  -0.00010   0.00020  -0.00036
 180       10F 0       -0.00000  -0.00001   0.00001  -0.00000  -0.00000
 181       10F+1        0.00000   0.00000   0.00000   0.00002   0.00002
 182       10F-1       -0.00000  -0.00001  -0.00001  -0.00007  -0.00007
 183       10F+2       -0.00002  -0.00000  -0.00001  -0.00019   0.00001
 184       10F-2        0.00002   0.00001   0.00002   0.00026  -0.00001
 185       10F+3        0.00001   0.00001   0.00001   0.00017   0.00007
 186       10F-3       -0.00001  -0.00001  -0.00001  -0.00012  -0.00005
 187 7   H  1S          0.00003  -0.00001   0.00004   0.00026   0.00005
 188        2S         -0.00042  -0.00022  -0.00021  -0.00376  -0.00031
 189        3S         -0.00007   0.00002   0.00002  -0.00031   0.00003
 190        4PX        -0.00002  -0.00003  -0.00001  -0.00016  -0.00005
 191        4PY        -0.00004   0.00000  -0.00001  -0.00047   0.00006
 192        4PZ         0.00002   0.00002   0.00001   0.00025   0.00002
 193        5PX        -0.00010   0.00000  -0.00006  -0.00081  -0.00022
 194        5PY        -0.00015  -0.00017  -0.00012  -0.00156   0.00005
 195        5PZ         0.00011   0.00004   0.00001   0.00103   0.00015
 196        6D 0        0.00002   0.00001   0.00003   0.00017  -0.00003
 197        6D+1        0.00003   0.00001   0.00002   0.00034   0.00009
 198        6D-1        0.00008   0.00001   0.00003   0.00087   0.00000
 199        6D+2        0.00006   0.00001   0.00003   0.00056  -0.00009
 200        6D-2       -0.00007  -0.00001  -0.00005  -0.00068  -0.00003
 201 8   O  1S          0.78436  -0.56794  -0.06697  -0.07175  -0.00003
 202        2S         -0.00567   0.00418   0.00053   0.00063   0.00026
 203        3S          0.04110  -0.02979  -0.00353  -0.00376  -0.00006
 204        4S          0.00549  -0.00338  -0.00012  -0.00134  -0.00023
 205        5PX        -0.00020   0.00015   0.00001   0.00002   0.00000
 206        5PY         0.00060  -0.00042  -0.00005  -0.00006  -0.00001
 207        5PZ         0.00001   0.00001  -0.00001   0.00000   0.00000
 208        6PX        -0.00047   0.00027   0.00010   0.00005   0.00003
 209        6PY         0.00133  -0.00097  -0.00008  -0.00015  -0.00008
 210        6PZ        -0.00003  -0.00005   0.00007  -0.00000  -0.00000
 211        7PX        -0.00052   0.00032   0.00018  -0.00012  -0.00028
 212        7PY         0.00142  -0.00121  -0.00016   0.00036   0.00083
 213        7PZ        -0.00001  -0.00002   0.00003  -0.00000  -0.00000
 214        8D 0       -0.00006   0.00004  -0.00000  -0.00000   0.00004
 215        8D+1        0.00014  -0.00010  -0.00002  -0.00001   0.00002
 216        8D-1        0.00005  -0.00004   0.00000  -0.00000   0.00001
 217        8D+2       -0.00003   0.00002   0.00002  -0.00001   0.00007
 218        8D-2       -0.00001   0.00003  -0.00000  -0.00001   0.00005
 219        9D 0        0.00001   0.00002   0.00002   0.00005  -0.00029
 220        9D+1        0.00062  -0.00039  -0.00002  -0.00010  -0.00012
 221        9D-1        0.00020  -0.00013  -0.00000  -0.00003  -0.00004
 222        9D+2        0.00021  -0.00017  -0.00011   0.00006  -0.00049
 223        9D-2        0.00011  -0.00020   0.00003   0.00004  -0.00036
 224       10F 0        0.00000   0.00001  -0.00001   0.00000  -0.00000
 225       10F+1       -0.00002   0.00001  -0.00000   0.00000  -0.00002
 226       10F-1        0.00006  -0.00003  -0.00000  -0.00001   0.00007
 227       10F+2       -0.00016   0.00011   0.00001   0.00002   0.00001
 228       10F-2        0.00021  -0.00015  -0.00001  -0.00003  -0.00001
 229       10F+3       -0.00014   0.00009   0.00000   0.00002  -0.00007
 230       10F-3        0.00010  -0.00006  -0.00001  -0.00002   0.00005
 231 9   H  1S          0.00023  -0.00014  -0.00002  -0.00001   0.00005
 232        2S         -0.00310   0.00215   0.00000   0.00038  -0.00031
 233        3S         -0.00024   0.00021  -0.00000  -0.00002   0.00003
 234        4PX         0.00013  -0.00009   0.00001  -0.00003   0.00005
 235        4PY         0.00038  -0.00029  -0.00002  -0.00003  -0.00006
 236        4PZ         0.00020  -0.00015   0.00000  -0.00003   0.00002
 237        5PX         0.00068  -0.00046  -0.00004  -0.00004   0.00022
 238        5PY         0.00130  -0.00086   0.00003  -0.00023  -0.00005
 239        5PZ         0.00082  -0.00063  -0.00001  -0.00008   0.00015
 240        6D 0        0.00015  -0.00008  -0.00001  -0.00002  -0.00003
 241        6D+1       -0.00028   0.00020   0.00001   0.00003  -0.00009
 242        6D-1       -0.00070   0.00052   0.00004   0.00007  -0.00000
 243        6D+2        0.00046  -0.00032  -0.00002  -0.00005  -0.00009
 244        6D-2       -0.00056   0.00039   0.00003   0.00006  -0.00003
 245 10  H  1S          0.00022  -0.00015   0.00000  -0.00002   0.00005
 246        2S         -0.00321   0.00199   0.00027   0.00037  -0.00031
 247        3S         -0.00026   0.00018   0.00005  -0.00002   0.00003
 248        4PX        -0.00035   0.00022   0.00004   0.00004  -0.00000
 249        4PY         0.00022  -0.00018  -0.00003  -0.00001  -0.00008
 250        4PZ        -0.00021   0.00013   0.00003   0.00003  -0.00002
 251        5PX        -0.00135   0.00084   0.00009   0.00017  -0.00014
 252        5PY         0.00068  -0.00035  -0.00005  -0.00015  -0.00017
 253        5PZ        -0.00086   0.00056   0.00012   0.00008  -0.00015
 254        6D 0        0.00014  -0.00009   0.00001  -0.00002  -0.00003
 255        6D+1       -0.00065   0.00045   0.00007   0.00007  -0.00008
 256        6D-1        0.00040  -0.00028  -0.00004  -0.00004  -0.00005
 257        6D+2       -0.00041   0.00028   0.00003   0.00004  -0.00006
 258        6D-2        0.00060  -0.00041  -0.00005  -0.00006  -0.00008
 259 11  H  1S          0.00006   0.00002   0.00026  -0.00002   0.00005
 260        2S         -0.00055  -0.00025  -0.00375  -0.00002  -0.00031
 261        3S         -0.00005  -0.00008  -0.00031   0.00000   0.00003
 262        4PX         0.00006   0.00005   0.00047  -0.00002  -0.00006
 263        4PY        -0.00002   0.00000  -0.00016  -0.00002  -0.00005
 264        4PZ         0.00003   0.00002   0.00025   0.00000   0.00002
 265        5PX         0.00022   0.00003   0.00156   0.00005  -0.00005
 266        5PY        -0.00014  -0.00008  -0.00081   0.00004  -0.00022
 267        5PZ         0.00012   0.00011   0.00102  -0.00001   0.00015
 268        6D 0        0.00004   0.00000   0.00017  -0.00001  -0.00003
 269        6D+1       -0.00011  -0.00008  -0.00086   0.00004  -0.00000
 270        6D-1        0.00004   0.00002   0.00034  -0.00001   0.00009
 271        6D+2       -0.00008  -0.00005  -0.00055   0.00002   0.00009
 272        6D-2        0.00010   0.00005   0.00067  -0.00003   0.00003
 273 12  H  1S          0.00004   0.00001   0.00001   0.00026   0.00005
 274        2S         -0.00033  -0.00006  -0.00048  -0.00375  -0.00031
 275        3S         -0.00005   0.00005  -0.00004  -0.00031   0.00004
 276        4PX         0.00003  -0.00000   0.00005   0.00041   0.00000
 277        4PY        -0.00003   0.00002  -0.00001  -0.00028   0.00008
 278        4PZ        -0.00001  -0.00000  -0.00003  -0.00024  -0.00002
 279        5PX         0.00014   0.00005   0.00019   0.00158   0.00014
 280        5PY        -0.00003  -0.00008  -0.00015  -0.00076   0.00017
 281        5PZ        -0.00007   0.00003  -0.00012  -0.00103  -0.00015
 282        6D 0        0.00002   0.00002   0.00001   0.00017  -0.00003
 283        6D+1        0.00006  -0.00001   0.00007   0.00079   0.00008
 284        6D-1       -0.00004   0.00001  -0.00004  -0.00049   0.00005
 285        6D+2       -0.00005  -0.00001  -0.00004  -0.00049  -0.00006
 286        6D-2        0.00007   0.00000   0.00006   0.00073  -0.00008
 287 13  H  1S          0.00017   0.00020  -0.00004  -0.00001   0.00005
 288        2S         -0.00220  -0.00302   0.00066  -0.00015  -0.00031
 289        3S         -0.00016  -0.00028   0.00001  -0.00001   0.00003
 290        4PX        -0.00015  -0.00024   0.00003   0.00002   0.00008
 291        4PY        -0.00023  -0.00034   0.00008  -0.00001  -0.00000
 292        4PZ        -0.00014  -0.00020   0.00005  -0.00001  -0.00002
 293        5PX        -0.00045  -0.00059   0.00021  -0.00009   0.00017
 294        5PY        -0.00094  -0.00126   0.00029  -0.00006  -0.00014
 295        5PZ        -0.00056  -0.00086   0.00016  -0.00003  -0.00015
 296        6D 0        0.00011   0.00013  -0.00003  -0.00000  -0.00003
 297        6D+1       -0.00027  -0.00040   0.00008   0.00001   0.00005
 298        6D-1       -0.00045  -0.00065   0.00013   0.00000  -0.00008
 299        6D+2        0.00029   0.00039  -0.00008  -0.00000   0.00006
 300        6D-2       -0.00042  -0.00059   0.00012  -0.00000   0.00008
                          11        12        13        14        15
                           O         O         O         O         O
     Eigenvalues --    -3.47158  -3.45962  -3.45962  -1.33156  -1.32238
   1 1   Zn 1S         -0.00000  -0.00000   0.00000  -0.00438   0.00000
   2        2S          0.00000   0.00000  -0.00000   0.01693  -0.00001
   3        3S          0.00000  -0.00000  -0.00000  -0.01871   0.00001
   4        4S         -0.00000  -0.00000  -0.00000   0.01976  -0.00001
   5        5S         -0.00000  -0.00000  -0.00000   0.00358  -0.00000
   6        6S         -0.00000  -0.00000   0.00000  -0.05069   0.00002
   7        7S         -0.00000   0.00000  -0.00000   0.00958  -0.00001
   8        8PX         0.00000   0.33307  -0.16349  -0.00001  -0.01162
   9        8PY        -0.00001   0.16349   0.33307   0.00001  -0.00367
  10        8PZ         0.37108  -0.00000   0.00001  -0.00000  -0.00000
  11        9PX        -0.00000  -0.51072   0.25069   0.00003   0.03482
  12        9PY         0.00001  -0.25069  -0.51072  -0.00002   0.01099
  13        9PZ        -0.57060   0.00000  -0.00001   0.00001   0.00000
  14       10PX        -0.00000   0.00701  -0.00344   0.00001   0.01879
  15       10PY        -0.00000   0.00344   0.00701  -0.00001   0.00594
  16       10PZ         0.00629  -0.00000   0.00000   0.00001  -0.00000
  17       11PX        -0.00000  -0.05211   0.02558  -0.00003  -0.03874
  18       11PY         0.00000  -0.02558  -0.05211   0.00002  -0.01224
  19       11PZ        -0.05535  -0.00000  -0.00000  -0.00001  -0.00000
  20       12PX         0.00001   0.61007  -0.29945  -0.00002  -0.02323
  21       12PY        -0.00001   0.29945   0.61007   0.00001  -0.00733
  22       12PZ         0.67950  -0.00000   0.00001  -0.00000  -0.00000
  23       13PX        -0.00000  -0.00115   0.00057  -0.00000  -0.00467
  24       13PY        -0.00000  -0.00057  -0.00115   0.00000  -0.00147
  25       13PZ        -0.00107   0.00000   0.00000   0.00000   0.00000
  26       14D 0       -0.00000  -0.00000  -0.00000  -0.01284   0.00001
  27       14D+1        0.00000   0.00000   0.00000   0.00000   0.00001
  28       14D-1        0.00000  -0.00000   0.00000   0.00000  -0.00002
  29       14D+2       -0.00000   0.00000  -0.00000   0.00000   0.00001
  30       14D-2       -0.00000   0.00000   0.00000   0.00000   0.00001
  31       15D 0       -0.00000  -0.00000   0.00000   0.01211  -0.00001
  32       15D+1       -0.00000   0.00000   0.00001  -0.00000   0.00014
  33       15D-1        0.00000  -0.00001   0.00000  -0.00000  -0.00045
  34       15D+2       -0.00000  -0.00000  -0.00000  -0.00000  -0.00001
  35       15D-2       -0.00000  -0.00000  -0.00000  -0.00000  -0.00001
  36       16D 0       -0.00000  -0.00000   0.00000  -0.01489   0.00001
  37       16D+1        0.00000  -0.00000  -0.00000   0.00000  -0.00003
  38       16D-1        0.00000   0.00000  -0.00000   0.00000   0.00010
  39       16D+2       -0.00000   0.00000  -0.00000   0.00001   0.00002
  40       16D-2       -0.00000   0.00000   0.00000   0.00000   0.00001
  41       17D 0       -0.00000  -0.00000   0.00000  -0.00712   0.00000
  42       17D+1        0.00000   0.00001   0.00003  -0.00000   0.00039
  43       17D-1       -0.00000  -0.00003   0.00001   0.00000  -0.00125
  44       17D+2       -0.00000   0.00000  -0.00000   0.00000   0.00001
  45       17D-2       -0.00000   0.00000   0.00000   0.00000   0.00001
  46       18F 0       -0.00033  -0.00000  -0.00000   0.00000  -0.00000
  47       18F+1       -0.00000  -0.00027   0.00013   0.00000   0.00003
  48       18F-1        0.00000  -0.00013  -0.00027  -0.00000   0.00001
  49       18F+2       -0.00000  -0.00000   0.00000   0.00000   0.00000
  50       18F-2       -0.00000   0.00000   0.00000   0.00000   0.00000
  51       18F+3       -0.00000  -0.00006  -0.00007   0.00000  -0.00001
  52       18F-3       -0.00000  -0.00007   0.00006  -0.00000  -0.00002
  53       19F 0       -0.00070   0.00000  -0.00000   0.00000   0.00000
  54       19F+1       -0.00000  -0.00051   0.00025   0.00000   0.00128
  55       19F-1        0.00000  -0.00025  -0.00051  -0.00000   0.00040
  56       19F+2       -0.00000  -0.00000  -0.00000   0.00000  -0.00000
  57       19F-2       -0.00000   0.00000  -0.00000   0.00000  -0.00000
  58       19F+3        0.00000  -0.00008  -0.00008   0.00000  -0.00094
  59       19F-3       -0.00000  -0.00008   0.00008  -0.00000  -0.00139
  60       20G 0       -0.00000  -0.00000   0.00000   0.00004  -0.00000
  61       20G+1        0.00000   0.00000  -0.00000  -0.00000   0.00000
  62       20G-1        0.00000   0.00000   0.00000  -0.00000  -0.00000
  63       20G+2       -0.00000   0.00000  -0.00000  -0.00000  -0.00000
  64       20G-2       -0.00000   0.00000   0.00000  -0.00000  -0.00000
  65       20G+3       -0.00000  -0.00000   0.00000  -0.00000  -0.00000
  66       20G-3        0.00000   0.00000   0.00000   0.00000   0.00000
  67       20G+4       -0.00000  -0.00000  -0.00000   0.00003  -0.00000
  68       20G-4        0.00000   0.00000  -0.00000   0.00010  -0.00000
  69 2   O  1S         -0.00000  -0.00053   0.00007  -0.10408  -0.14870
  70        2S          0.00000   0.00061  -0.00008   0.23635   0.33649
  71        3S          0.00000   0.00010  -0.00001   0.07180   0.10282
  72        4S         -0.00000   0.00276  -0.00038   0.14303   0.20932
  73        5PX         0.00000   0.00047  -0.00004  -0.01930  -0.03143
  74        5PY        -0.00001   0.00015  -0.00009  -0.00640  -0.01039
  75        5PZ        -0.00006  -0.00000  -0.00001   0.00001   0.00002
  76        6PX        -0.00001   0.00044  -0.00008  -0.02080  -0.03559
  77        6PY         0.00003   0.00016   0.00003  -0.00690  -0.01178
  78        6PZ        -0.00003   0.00001   0.00010   0.00001   0.00001
  79        7PX         0.00002  -0.00061   0.00015  -0.00025   0.01035
  80        7PY        -0.00007  -0.00023  -0.00016  -0.00008   0.00342
  81        7PZ        -0.00027   0.00002   0.00011   0.00000  -0.00003
  82        8D 0       -0.00000   0.00002  -0.00000  -0.00042  -0.00050
  83        8D+1       -0.00001  -0.00001  -0.00000  -0.00037  -0.00053
  84        8D-1       -0.00000   0.00002  -0.00000   0.00111   0.00158
  85        8D+2        0.00000  -0.00003   0.00001   0.00008   0.00011
  86        8D-2       -0.00000  -0.00003  -0.00000   0.00006   0.00008
  87        9D 0        0.00000  -0.00051   0.00007  -0.00285  -0.00377
  88        9D+1       -0.00007   0.00004  -0.00003  -0.00095  -0.00157
  89        9D-1       -0.00002  -0.00012   0.00001   0.00287   0.00476
  90        9D+2       -0.00001   0.00079  -0.00003   0.00291   0.00368
  91        9D-2        0.00001   0.00057  -0.00018   0.00217   0.00276
  92       10F 0        0.00002  -0.00000  -0.00001  -0.00000   0.00000
  93       10F+1       -0.00000  -0.00014   0.00001  -0.00027  -0.00035
  94       10F-1        0.00001  -0.00004   0.00002  -0.00009  -0.00012
  95       10F+2       -0.00003   0.00001  -0.00001   0.00078   0.00117
  96       10F-2       -0.00002  -0.00002  -0.00000  -0.00105  -0.00157
  97       10F+3        0.00000   0.00012   0.00002   0.00044   0.00071
  98       10F-3       -0.00000   0.00016  -0.00005   0.00063   0.00101
  99 3   H  1S         -0.00000   0.00001   0.00001   0.04300   0.06242
 100        2S          0.00003  -0.00077  -0.00011   0.03399   0.05205
 101        3S          0.00014  -0.00030   0.00016   0.00108   0.00316
 102        4PX        -0.00001   0.00002  -0.00001   0.00528   0.00751
 103        4PY         0.00001   0.00005   0.00001  -0.00284  -0.00397
 104        4PZ        -0.00000   0.00003   0.00002  -0.00352  -0.00497
 105        5PX        -0.00000   0.00009  -0.00017   0.00447   0.00523
 106        5PY        -0.00004   0.00045  -0.00005  -0.00209  -0.00533
 107        5PZ         0.00001   0.00032  -0.00005  -0.00333  -0.00580
 108        6D 0        0.00001  -0.00007   0.00003  -0.00023  -0.00018
 109        6D+1       -0.00001   0.00002   0.00002  -0.00114  -0.00150
 110        6D-1        0.00000  -0.00012   0.00002   0.00039   0.00069
 111        6D+2       -0.00001   0.00015  -0.00004   0.00073   0.00077
 112        6D-2       -0.00000   0.00009  -0.00001  -0.00076  -0.00124
 113 4   O  1S         -0.00000   0.00053  -0.00007  -0.10394   0.14863
 114        2S          0.00000  -0.00061   0.00008   0.23604  -0.33632
 115        3S          0.00000  -0.00010   0.00001   0.07171  -0.10277
 116        4S         -0.00000  -0.00276   0.00038   0.14284  -0.20922
 117        5PX        -0.00000   0.00047  -0.00004   0.01927  -0.03141
 118        5PY         0.00001   0.00015  -0.00009   0.00641  -0.01040
 119        5PZ        -0.00006   0.00000   0.00001   0.00002  -0.00004
 120        6PX         0.00001   0.00044  -0.00008   0.02077  -0.03557
 121        6PY        -0.00003   0.00016   0.00003   0.00691  -0.01179
 122        6PZ        -0.00003  -0.00001  -0.00010   0.00003  -0.00004
 123        7PX        -0.00002  -0.00061   0.00015   0.00026   0.01035
 124        7PY         0.00007  -0.00023  -0.00016   0.00009   0.00342
 125        7PZ        -0.00027  -0.00001  -0.00011   0.00001   0.00002
 126        8D 0       -0.00000  -0.00002   0.00000  -0.00042   0.00050
 127        8D+1        0.00001  -0.00001  -0.00000   0.00037  -0.00053
 128        8D-1        0.00000   0.00002  -0.00000  -0.00111   0.00158
 129        8D+2        0.00000   0.00003  -0.00001   0.00008  -0.00011
 130        8D-2       -0.00000   0.00003   0.00001   0.00006  -0.00008
 131        9D 0        0.00000   0.00051  -0.00007  -0.00285   0.00378
 132        9D+1        0.00007   0.00004  -0.00003   0.00095  -0.00158
 133        9D-1        0.00002  -0.00012   0.00001  -0.00287   0.00475
 134        9D+2       -0.00001  -0.00079   0.00003   0.00290  -0.00367
 135        9D-2        0.00001  -0.00057   0.00018   0.00216  -0.00276
 136       10F 0        0.00002   0.00000   0.00001  -0.00000  -0.00000
 137       10F+1        0.00000  -0.00014   0.00001   0.00026  -0.00035
 138       10F-1       -0.00001  -0.00004   0.00002   0.00009  -0.00011
 139       10F+2       -0.00003  -0.00001   0.00001   0.00078  -0.00117
 140       10F-2       -0.00002   0.00002   0.00000  -0.00104   0.00157
 141       10F+3       -0.00000   0.00012   0.00002  -0.00044   0.00071
 142       10F-3        0.00000   0.00016  -0.00005  -0.00063   0.00102
 143 5   H  1S          0.00000  -0.00001   0.00001   0.04294  -0.06237
 144        2S         -0.00003   0.00071  -0.00031   0.03395  -0.05191
 145        3S         -0.00014   0.00033   0.00007   0.00108  -0.00315
 146        4PX        -0.00000   0.00005  -0.00001  -0.00254   0.00365
 147        4PY        -0.00001  -0.00003   0.00002  -0.00543   0.00767
 148        4PZ        -0.00000   0.00003  -0.00003   0.00350  -0.00495
 149        5PX        -0.00002   0.00037   0.00007  -0.00233   0.00096
 150        5PY         0.00003  -0.00028   0.00014  -0.00435   0.00737
 151        5PZ         0.00001   0.00032  -0.00004   0.00332  -0.00577
[...]
 283         V                12.088230         33.675617
 284         V                12.088351         33.675850
 285         V                14.737076         27.811613
 286         V                14.758486         27.826341
 287         V                14.762834         27.825780
 288         V                14.762838         27.825782
 289         V                14.765799         27.827166
 290         V                14.908607         27.935489
 291         V                14.908610         27.935489
 292         V                15.374565         22.630112
 293         V                15.374566         22.630112
 294         V                15.374773         22.630463
 295         V                15.377696         22.630057
 296         V                15.380870         22.630113
 297         V                15.380870         22.630113
 298         V                15.385015         22.641227
 299         V                15.389036         22.631952
 300         V                15.399066         22.646032
 Total kinetic energy from orbitals= 2.080697144004D+03
 Calling FoFJK, ICntrl=      2527 FMM=F ISym2X=0 I1Cent= 4 IOpClX= 0 NMat=1 NMatS=1 NMatT=0.
 ***** Axes restored to original set *****
 -------------------------------------------------------------------
 Center     Atomic                   Forces (Hartrees/Bohr)
 Number     Number              X              Y              Z
 -------------------------------------------------------------------
      1       30          -0.000000000   -0.000000000   -0.000000000
      2        8          -0.000000000   -0.000000000   -0.000000000
      3        1          -0.000034535   -0.000004344   -0.000006439
      4        8          -0.000000000   -0.000000000   -0.000000000
      5        1           0.000001491    0.000011015    0.000001873
      6        8          -0.000000000   -0.000000000   -0.000000000
      7        1           0.000007542   -0.000029530   -0.000006942
      8        8          -0.000000000   -0.000000000   -0.000000000
      9        1          -0.000023238    0.000013060   -0.000029392
     10        1          -0.000033073    0.000030330   -0.000004019
     11        1           0.000016877    0.000005847   -0.000009331
     12        1          -0.000021268    0.000005045    0.000028608
     13        1          -0.000015858   -0.000020839    0.000008440
 -------------------------------------------------------------------
 Cartesian Forces:  Max     0.000034535 RMS     0.000014694

 GradGradGradGradGradGradGradGradGradGradGradGradGradGradGradGradGradGrad
 Berny optimization.
 FormGI is forming the generalized inverse of G from B-inverse, IUseBI=4.
 Internal  Forces:  Max     0.000061352 RMS     0.000019309
 Search for a local minimum.
 Step number   1 out of a maximum of   69
 All quantities printed in internal units (Hartrees-Bohrs-Radians)
 Mixed Optimization -- En-DIIS/RFO-DIIS
 Second derivative matrix not updated -- first step.
 ITU=  0
     Eigenvalues ---    0.01247   0.01247   0.01756   0.01756   0.01756
     Eigenvalues ---    0.01756   0.03282   0.03282   0.16000   0.16000
     Eigenvalues ---    0.16000   0.16000   0.16000   0.16000   0.16000
     Eigenvalues ---    0.16000   0.51502   0.51506   0.51510   0.51511
     Eigenvalues ---    0.51513   0.51513   0.51514   0.515191000.00000
     Eigenvalues --- 1000.000001000.000001000.000001000.000001000.00000
     Eigenvalues --- 1000.000001000.000001000.000001000.000001000.00000
     Eigenvalues --- 1000.000001000.000001000.000001000.000001000.00000
     Eigenvalues --- 1000.000001000.000001000.000001000.000001000.00000
     Eigenvalues --- 1000.000001000.000001000.000001000.000001000.00000
     Eigenvalues --- 1000.000001000.000001000.000001000.000001000.00000
     Eigenvalues --- 1000.000001000.000001000.000001000.00000
 RFO step:  Lambda=-6.56597914D-08 EMin= 1.24731327D-02
 Linear search not attempted -- first point.
 Iteration  1 RMS(Cart)=  0.00013920 RMS(Int)=  0.00000002
 Iteration  2 RMS(Cart)=  0.00000002 RMS(Int)=  0.00000000
 Variable       Old X    -DE/DX   Delta X   Delta X   Delta X     New X
                                 (Linear)    (Quad)   (Total)
    X1        0.00001  -0.00000   0.00000   0.00000   0.00000   0.00001
    Y1        0.00003  -0.00000   0.00000   0.00000   0.00000   0.00003
    Z1        0.00011   0.00000   0.00000   0.00000   0.00000   0.00011
    X2       -3.42608  -0.00005   0.00000   0.00000   0.00000  -3.42608
    Y2       -1.13555  -0.00003   0.00000   0.00000   0.00000  -1.13555
    Z2       -0.00013   0.00000   0.00000   0.00000   0.00000  -0.00013
    X4        3.42613   0.00002   0.00000   0.00000  -0.00000   3.42613
    Y4        1.13549   0.00002   0.00000   0.00000   0.00000   1.13549
    Z4       -0.00013  -0.00001   0.00000   0.00000   0.00000  -0.00013
    X6        1.13553  -0.00001   0.00000   0.00000   0.00000   1.13553
    Y6       -3.42612  -0.00002   0.00000   0.00000   0.00000  -3.42612
    Z6       -0.00027   0.00002   0.00000   0.00000   0.00000  -0.00027
    X8       -1.13551  -0.00006   0.00000   0.00000   0.00000  -1.13551
    Y8        3.42609   0.00004   0.00000   0.00000   0.00000   3.42609
    Z8       -0.00027  -0.00004   0.00000   0.00000   0.00000  -0.00027
    R1        1.85068   0.00002   0.00000   0.00004   0.00004   1.85072
    R2        1.85068   0.00002   0.00000   0.00003   0.00003   1.85072
    R3        1.85070   0.00001   0.00000   0.00002   0.00002   1.85072
    R4        1.85071   0.00001   0.00000   0.00001   0.00001   1.85073
    R5        1.85069   0.00002   0.00000   0.00003   0.00003   1.85072
    R6        1.85079  -0.00003   0.00000  -0.00006  -0.00006   1.85073
    R7        1.85075  -0.00001   0.00000  -0.00003  -0.00003   1.85072
    R8        1.85063   0.00004   0.00000   0.00008   0.00008   1.85071
    A1        2.21281   0.00002   0.00000   0.00015   0.00015   2.21296
    A2        2.21276   0.00000   0.00000   0.00000   0.00000   2.21276
    A3        1.85762  -0.00002   0.00000  -0.00016  -0.00016   1.85747
    A4        2.21289  -0.00001   0.00000  -0.00007  -0.00007   2.21283
    A5        2.21281   0.00002   0.00000   0.00014   0.00014   2.21295
    A6        1.85748  -0.00001   0.00000  -0.00007  -0.00007   1.85741
    A7        2.21270   0.00003   0.00000   0.00016   0.00016   2.21286
    A8        2.21290  -0.00000   0.00000  -0.00002  -0.00002   2.21288
    A9        1.85759  -0.00002   0.00000  -0.00014  -0.00014   1.85745
   A10        2.21280   0.00003   0.00000   0.00020   0.00020   2.21299
   A11        2.21269   0.00000   0.00000   0.00002   0.00002   2.21270
   A12        1.85770  -0.00003   0.00000  -0.00021  -0.00021   1.85749
    D1        2.46015   0.00001   0.00000   0.00019   0.00019   2.46033
    D2       -0.68085   0.00001   0.00000   0.00033   0.00033  -0.68052
    D3       -0.68166  -0.00000   0.00000   0.00019   0.00019  -0.68147
    D4        2.46054   0.00000   0.00000   0.00033   0.00033   2.46086
    D5       -1.36042   0.00000   0.00000   0.00033   0.00033  -1.36009
    D6        1.77974   0.00001   0.00000   0.00032   0.00032   1.78006
    D7        1.78171   0.00000   0.00000   0.00047   0.00047   1.78219
    D8       -1.36131   0.00001   0.00000   0.00046   0.00046  -1.36086
    D9        2.46264  -0.00000   0.00000   0.00015   0.00015   2.46278
   D10       -0.68048  -0.00000   0.00000   0.00013   0.00013  -0.68035
   D11       -0.67874   0.00000   0.00000   0.00015   0.00015  -0.67860
   D12        2.46132   0.00000   0.00000   0.00013   0.00013   2.46145
   D13       -0.68034  -0.00000   0.00000   0.00013   0.00013  -0.68021
   D14        2.46200   0.00000   0.00000   0.00021   0.00021   2.46221
   D15        2.46139   0.00000   0.00000   0.00013   0.00013   2.46151
   D16       -0.67946   0.00001   0.00000   0.00021   0.00021  -0.67925
   D17        1.77993   0.00001   0.00000   0.00036   0.00036   1.78029
   D18       -1.35999   0.00001   0.00000   0.00034   0.00034  -1.35965
   D19       -1.36104   0.00000   0.00000   0.00044   0.00044  -1.36060
   D20        1.78223   0.00000   0.00000   0.00042   0.00042   1.78265
   D21        2.46015   0.00001   0.00000   0.00023   0.00023   2.46038
   D22       -0.67965   0.00000   0.00000   0.00021   0.00021  -0.67944
   D23       -0.68158   0.00000   0.00000   0.00023   0.00023  -0.68135
   D24        2.46181  -0.00000   0.00000   0.00021   0.00021   2.46202
         Item               Value     Threshold  Converged?
 Maximum Force            0.000039     0.000450     YES
 RMS     Force            0.000015     0.000300     YES
 Maximum Displacement     0.000418     0.001800     YES
 RMS     Displacement     0.000139     0.001200     YES
 Predicted change in Energy=-3.282990D-08
 Optimization completed.
    -- Stationary point found.
                           ----------------------------
                           !   Optimized Parameters   !
                           ! (Angstroms and Degrees)  !
 --------------------------                            --------------------------
 ! Name  Definition              Value          Derivative Info.                !
 --------------------------------------------------------------------------------
 ! X1    R(1,-1)                 0.0            -DE/DX =    0.0                 !
 ! Y1    R(1,-2)                 0.0            -DE/DX =    0.0                 !
 ! Z1    R(1,-3)                 0.0001         -DE/DX =    0.0                 !
 ! X2    R(2,-1)                -1.813          -DE/DX =    0.0                 !
 ! Y2    R(2,-2)                -0.6009         -DE/DX =    0.0                 !
 ! Z2    R(2,-3)                -0.0001         -DE/DX =    0.0                 !
 ! X4    R(4,-1)                 1.813          -DE/DX =    0.0                 !
 ! Y4    R(4,-2)                 0.6009         -DE/DX =    0.0                 !
 ! Z4    R(4,-3)                -0.0001         -DE/DX =    0.0                 !
 ! X6    R(6,-1)                 0.6009         -DE/DX =    0.0                 !
 ! Y6    R(6,-2)                -1.813          -DE/DX =    0.0                 !
 ! Z6    R(6,-3)                -0.0001         -DE/DX =    0.0                 !
 ! X8    R(8,-1)                -0.6009         -DE/DX =   -0.0001              !
 ! Y8    R(8,-2)                 1.813          -DE/DX =    0.0                 !
 ! Z8    R(8,-3)                -0.0001         -DE/DX =    0.0                 !
 ! R1    R(2,3)                  0.9793         -DE/DX =    0.0                 !
 ! R2    R(2,13)                 0.9793         -DE/DX =    0.0                 !
 ! R3    R(4,5)                  0.9794         -DE/DX =    0.0                 !
 ! R4    R(4,11)                 0.9794         -DE/DX =    0.0                 !
 ! R5    R(6,7)                  0.9793         -DE/DX =    0.0                 !
 ! R6    R(6,12)                 0.9794         -DE/DX =    0.0                 !
 ! R7    R(8,9)                  0.9794         -DE/DX =    0.0                 !
 ! R8    R(8,10)                 0.9793         -DE/DX =    0.0                 !
 ! A1    A(1,2,3)              126.7844         -DE/DX =    0.0                 !
 ! A2    A(1,2,13)             126.7818         -DE/DX =    0.0                 !
 ! A3    A(3,2,13)             106.4338         -DE/DX =    0.0                 !
 ! A4    A(1,4,5)              126.7895         -DE/DX =    0.0                 !
 ! A5    A(1,4,11)             126.7846         -DE/DX =    0.0                 !
 ! A6    A(5,4,11)             106.4259         -DE/DX =    0.0                 !
 ! A7    A(1,6,7)              126.7785         -DE/DX =    0.0                 !
 ! A8    A(1,6,12)             126.7897         -DE/DX =    0.0                 !
 ! A9    A(7,6,12)             106.4318         -DE/DX =    0.0                 !
 ! A10   A(1,8,9)              126.784          -DE/DX =    0.0                 !
 ! A11   A(1,8,10)             126.7777         -DE/DX =    0.0                 !
 ! A12   A(9,8,10)             106.4383         -DE/DX =    0.0                 !
 ! D1    D(6,1,2,3)            140.956          -DE/DX =    0.0                 !
 ! D2    D(6,1,2,13)           -39.0096         -DE/DX =    0.0                 !
 ! D3    D(8,1,2,3)            -39.0561         -DE/DX =    0.0                 !
 ! D4    D(8,1,2,13)           140.9783         -DE/DX =    0.0                 !
 ! D5    D(3,2,4,5)            -77.9462         -DE/DX =    0.0                 !
 ! D6    D(3,2,4,11)           101.9716         -DE/DX =    0.0                 !
 ! D7    D(13,2,4,5)           102.0847         -DE/DX =    0.0                 !
 ! D8    D(13,2,4,11)          -77.9976         -DE/DX =    0.0                 !
 ! D9    D(6,1,4,5)            141.0987         -DE/DX =    0.0                 !
 ! D10   D(6,1,4,11)           -38.9889         -DE/DX =    0.0                 !
 ! D11   D(8,1,4,5)            -38.8892         -DE/DX =    0.0                 !
 ! D12   D(8,1,4,11)           141.0232         -DE/DX =    0.0                 !
 ! D13   D(2,1,6,7)            -38.9807         -DE/DX =    0.0                 !
 ! D14   D(2,1,6,12)           141.0623         -DE/DX =    0.0                 !
 ! D15   D(4,1,6,7)            141.027          -DE/DX =    0.0                 !
 ! D16   D(4,1,6,12)           -38.9301         -DE/DX =    0.0                 !
 ! D17   D(7,6,8,9)            101.9823         -DE/DX =    0.0                 !
 ! D18   D(7,6,8,10)           -77.9214         -DE/DX =    0.0                 !
 ! D19   D(12,6,8,9)           -77.982          -DE/DX =    0.0                 !
 ! D20   D(12,6,8,10)          102.1143         -DE/DX =    0.0                 !
 ! D21   D(2,1,8,9)            140.9559         -DE/DX =    0.0                 !
 ! D22   D(2,1,8,10)           -38.941          -DE/DX =    0.0                 !
 ! D23   D(4,1,8,9)            -39.0517         -DE/DX =    0.0                 !
 ! D24   D(4,1,8,10)           141.0514         -DE/DX =    0.0                 !
 --------------------------------------------------------------------------------
 GradGradGradGradGradGradGradGradGradGradGradGradGradGradGradGradGradGrad

                          Input orientation:                          
 ---------------------------------------------------------------------
 Center     Atomic      Atomic             Coordinates (Angstroms)
 Number     Number       Type             X           Y           Z
 ---------------------------------------------------------------------
      1         30           0        0.000006    0.000014    0.000058
      2          8           0       -1.813005   -0.600909   -0.000069
      3          1           0       -2.561329   -0.207235    0.494028
      4          8           0        1.813028    0.600874   -0.000069
      5          1           0        2.177699    1.364801   -0.492572
      6          8           0        0.600897   -1.813025   -0.000143
      7          1           0        0.206543   -2.561498    0.493194
      8          8           0       -0.600886    1.813009   -0.000143
      9          1           0       -0.207170    2.561376    0.493931
     10          1           0       -1.364417    2.177582   -0.493252
     11          1           0        2.561537    0.206620    0.493322
     12          1           0        1.364541   -2.177792   -0.493101
     13          1           0       -2.177853   -1.363880   -0.493898
 ---------------------------------------------------------------------
                    Distance matrix (angstroms):
                    1          2          3          4          5
     1  Zn   0.000000
     2  O    1.910005   0.000000
     3  H    2.616752   0.979336   0.000000
     4  O    1.909995   3.820000   4.475731   0.000000
     5  H    2.616806   4.475746   5.089505   0.979351   0.000000
     6  O    1.910021   2.701139   3.580843   2.701142   3.581531
     7  H    2.616713   2.857586   3.633686   3.581159   4.502557
     8  O    1.909979   2.701154   2.858133   2.701157   2.857256
     9  H    2.616755   3.580892   3.634181   2.858112   2.844746
    10  H    2.616640   2.857354   2.845114   3.581256   3.634171
    11  H    2.616761   4.475730   5.139556   0.979356   1.568662
    12  H    2.616870   3.581403   4.502219   2.857483   3.634721
    13  H    2.616729   0.979339   1.568719   4.475629   5.139702
                    6          7          8          9         10
     6  O    0.000000
     7  H    0.979341   0.000000
     8  O    3.820000   4.475671   0.000000
     9  H    4.475764   5.139552   0.979375   0.000000
    10  H    4.475551   5.089192   0.979311   1.568773   0.000000
    11  H    2.857723   3.634347   3.581189   3.634641   4.502348
    12  H    0.979395   1.568747   4.475758   5.089620   5.139698
    13  H    2.857792   2.844992   3.580956   4.501892   3.633680
                   11         12         13
    11  H    0.000000
    12  H    2.844512   0.000000
    13  H    5.089488   3.634695   0.000000
 Stoichiometry    H8O4Zn(2+)
 Framework group  C1[X(H8O4Zn)]
 Deg. of freedom    33
 Full point group                 C1      NOp   1
 Largest Abelian subgroup         C1      NOp   1
 Largest concise Abelian subgroup C1      NOp   1
                         Standard orientation:                         
 ---------------------------------------------------------------------
 Center     Atomic      Atomic             Coordinates (Angstroms)
 Number     Number       Type             X           Y           Z
 ---------------------------------------------------------------------
      1         30           0        0.000006    0.000014    0.000058
      2          8           0       -1.813049   -0.600776   -0.000069
      3          1           0       -2.561344   -0.207047    0.494028
      4          8           0        1.813072    0.600741   -0.000069
      5          1           0        2.177799    1.364641   -0.492572
      6          8           0        0.600764   -1.813069   -0.000143
      7          1           0        0.206355   -2.561513    0.493194
      8          8           0       -0.600753    1.813053   -0.000143
      9          1           0       -0.206982    2.561391    0.493931
     10          1           0       -1.364257    2.177682   -0.493252
     11          1           0        2.561552    0.206432    0.493322
     12          1           0        1.364382   -2.177892   -0.493101
     13          1           0       -2.177953   -1.363721   -0.493898
 ---------------------------------------------------------------------
 Rotational constants (GHZ):      3.4784934      3.4784589      1.7630576
 1\1\GINC-HECTOR-MACBOOKAIR\FOpt\RPBEPBE\CC-pVTZ/def2TZV\H8O4Zn1(2+)\HE
 CTOR\08-Aug-2024\0\\# opt pbepbe/cc-pvtz/def2tzv pop=full geom=connect
 ivity output=wfx\\Zn2_cuadrado_plano_cc-pvtz-def2-tzv_1\\2,1\Zn,0.0000
 0581,0.00001444,0.00005835\O,-1.81300544,-0.60090896,-0.00006945\H,-2.
 56132879,-0.20723499,0.49402769\O,1.81302813,0.60087423,-0.00006944\H,
 2.17769929,1.36480098,-0.49257189\O,0.60089733,-1.81302478,-0.00014314
 \H,0.20654307,-2.56149823,0.49319364\O,-0.60088585,1.81300876,-0.00014
 314\H,-0.20717004,2.56137598,0.49393097\H,-1.36441711,2.17758194,-0.49
 325222\H,2.56153723,0.20661973,0.49332178\H,1.36454139,-2.1777924,-0.4
 9310142\H,-2.17785284,-1.3638803,-0.49389772\\Version=EM64L-G09RevE.01
 \State=1-A\HF=-2085.0315204\RMSD=7.659e-09\RMSF=1.469e-05\Dipole=-0.00
 04009,0.0001006,0.0013969\Quadrupole=7.4878129,7.4856349,-14.9734478,0
 .0000206,0.0013935,0.0042223\PG=C01 [X(H8O4Zn1)]\\@

 Writing a WFNX file to "Zn2_cuadrado_plano_cc-pvtz-def2-tzv_1.wfx"


 SIGN SEEN IN A RESTAURANT-
 WE RESERVE THE RIGHT TO SERVE REFUSE TO ANYONE.
 Job cpu time:       0 days  0 hours  1 minutes 25.8 seconds.
 File lengths (MBytes):  RWF=     49 Int=      0 D2E=      0 Chk=      7 Scr=      1
 Normal termination of Gaussian 09 at Thu Aug  8 12:39:43 2024.
