 Entering Gaussian System, Link 0=g09
 Input=Ti23.com
 Output=Ti23.log
 Initial command:
 /opt/SC/aplicaciones/g09-D.01/l1.exe "/tmpu/fercor_g/daram_a/Gau-34062.inp" -scrdir="/tmpu/fercor_g/daram_a/"
 Entering Link 1 = /opt/SC/aplicaciones/g09-D.01/l1.exe PID=     34063.
  
 Copyright (c) 1988,1990,1992,1993,1995,1998,2003,2009,2013,
            Gaussian, Inc.  All Rights Reserved.
  
 This is part of the Gaussian(R) 09 program.  It is based on
 the Gaussian(R) 03 system (copyright 2003, Gaussian, Inc.),
 the Gaussian(R) 98 system (copyright 1998, Gaussian, Inc.),
 the Gaussian(R) 94 system (copyright 1995, Gaussian, Inc.),
 the Gaussian 92(TM) system (copyright 1992, Gaussian, Inc.),
 the Gaussian 90(TM) system (copyright 1990, Gaussian, Inc.),
 the Gaussian 88(TM) system (copyright 1988, Gaussian, Inc.),
 the Gaussian 86(TM) system (copyright 1986, Carnegie Mellon
 University), and the Gaussian 82(TM) system (copyright 1983,
 Carnegie Mellon University). Gaussian is a federally registered
 trademark of Gaussian, Inc.
  
 This software contains proprietary and confidential information,
 including trade secrets, belonging to Gaussian, Inc.
  
 This software is provided under written license and may be
 used, copied, transmitted, or stored only in accord with that
 written license.
  
 The following legend is applicable only to US Government
 contracts under FAR:
  
                    RESTRICTED RIGHTS LEGEND
  
 Use, reproduction and disclosure by the US Government is
 subject to restrictions as set forth in subparagraphs (a)
 and (c) of the Commercial Computer Software - Restricted
 Rights clause in FAR 52.227-19.
  
 Gaussian, Inc.
 340 Quinnipiac St., Bldg. 40, Wallingford CT 06492
  
  
 ---------------------------------------------------------------
 Warning -- This program may not be used in any manner that
 competes with the business of Gaussian, Inc. or will provide
 assistance to any competitor of Gaussian, Inc.  The licensee
 of this program is prohibited from giving any competitor of
 Gaussian, Inc. access to this program.  By using this program,
 the user acknowledges that Gaussian, Inc. is engaged in the
 business of creating and licensing software in the field of
 computational chemistry and represents and warrants to the
 licensee that it is not a competitor of Gaussian, Inc. and that
 it will not use this program in any manner prohibited above.
 ---------------------------------------------------------------
  

 Cite this work as:
 Gaussian 09, Revision D.01,
 M. J. Frisch, G. W. Trucks, H. B. Schlegel, G. E. Scuseria, 
 M. A. Robb, J. R. Cheeseman, G. Scalmani, V. Barone, B. Mennucci, 
 G. A. Petersson, H. Nakatsuji, M. Caricato, X. Li, H. P. Hratchian, 
 A. F. Izmaylov, J. Bloino, G. Zheng, J. L. Sonnenberg, M. Hada, 
 M. Ehara, K. Toyota, R. Fukuda, J. Hasegawa, M. Ishida, T. Nakajima, 
 Y. Honda, O. Kitao, H. Nakai, T. Vreven, J. A. Montgomery, Jr., 
 J. E. Peralta, F. Ogliaro, M. Bearpark, J. J. Heyd, E. Brothers, 
 K. N. Kudin, V. N. Staroverov, T. Keith, R. Kobayashi, J. Normand, 
 K. Raghavachari, A. Rendell, J. C. Burant, S. S. Iyengar, J. Tomasi, 
 M. Cossi, N. Rega, J. M. Millam, M. Klene, J. E. Knox, J. B. Cross, 
 V. Bakken, C. Adamo, J. Jaramillo, R. Gomperts, R. E. Stratmann, 
 O. Yazyev, A. J. Austin, R. Cammi, C. Pomelli, J. W. Ochterski, 
 R. L. Martin, K. Morokuma, V. G. Zakrzewski, G. A. Voth, 
 P. Salvador, J. J. Dannenberg, S. Dapprich, A. D. Daniels, 
 O. Farkas, J. B. Foresman, J. V. Ortiz, J. Cioslowski, 
 and D. J. Fox, Gaussian, Inc., Wallingford CT, 2013.
 
 ******************************************
 Gaussian 09:  ES64L-G09RevD.01 24-Apr-2013
                29-Jun-2015 
 ******************************************
 %nprocshared=16
 Will use up to   16 processors via shared memory.
 %mem=32GB
 %chk=Ti23.chk
 -------------------------------------------------
 # opt 6-311++g(2d,2p) m062x output=wfnx scf=tight
 -------------------------------------------------
 1/14=-1,18=20,19=15,26=3,38=1/1,3;
 2/9=110,12=2,17=6,18=5,40=1/2;
 3/5=4,6=6,7=1212,11=2,16=1,25=1,30=1,71=1,74=-55/1,2,3;
 4//1;
 5/5=2,32=2,38=5/2;
 6/7=2,8=2,9=2,10=2,28=1/1;
 7//1,2,3,16;
 1/14=-1,18=20,19=15,26=3/3(2);
 2/9=110/2;
 99/6=200/99;
 2/9=110/2;
 3/5=4,6=6,7=1212,11=2,16=1,25=1,30=1,71=1,74=-55/1,2,3;
 4/5=5,16=3,69=1/1;
 5/5=2,32=2,38=5/2;
 7//1,2,3,16;
 1/14=-1,18=20,19=15,26=3/3(-5);
 2/9=110/2;
 6/7=2,8=2,9=2,10=2,19=2,28=1/1;
 99/6=200,9=1/99;
 -------------
 Ti[H2O]6 (2+)
 -------------
 Symbolic Z-matrix:
 Charge =  2 Multiplicity = 3
 Ti                    0.        0.        0. 
 O                    -0.1662    2.19392   0.07924 
 H                    -0.68788   2.77029  -0.51814 
 H                     0.3395    2.7959    0.66577 
 O                    -0.00136  -0.03469  -2.20012 
 H                    -0.56159   0.50792  -2.7951 
 H                     0.63654  -0.50237  -2.77818 
 O                    -2.19714  -0.07498  -0.09094 
 H                    -2.74046  -0.70068  -0.6146 
 H                    -2.82734   0.45231   0.44653 
 O                     0.1662   -2.19392  -0.07924 
 O                     0.00136   0.03469   2.20012 
 O                     2.19714   0.07498   0.09094 
 H                     0.68788  -2.77029   0.51814 
 H                    -0.3395   -2.7959   -0.66577 
 H                     0.56159  -0.50792   2.7951 
 H                    -0.63654   0.50237   2.77818 
 H                     2.74046   0.70068   0.6146 
 H                     2.82734  -0.45231  -0.44653 
 

 GradGradGradGradGradGradGradGradGradGradGradGradGradGradGradGradGradGrad
 Berny optimization.
 Initialization pass.
                           ----------------------------
                           !    Initial Parameters    !
                           ! (Angstroms and Degrees)  !
 --------------------------                            --------------------------
 ! Name  Definition              Value          Derivative Info.                !
 --------------------------------------------------------------------------------
 ! R1    R(1,2)                  2.2016         estimate D2E/DX2                !
 ! R2    R(1,5)                  2.2004         estimate D2E/DX2                !
 ! R3    R(1,8)                  2.2003         estimate D2E/DX2                !
 ! R4    R(1,11)                 2.2016         estimate D2E/DX2                !
 ! R5    R(1,12)                 2.2004         estimate D2E/DX2                !
 ! R6    R(1,13)                 2.2003         estimate D2E/DX2                !
 ! R7    R(2,3)                  0.9804         estimate D2E/DX2                !
 ! R8    R(2,4)                  0.9809         estimate D2E/DX2                !
 ! R9    R(5,6)                  0.981          estimate D2E/DX2                !
 ! R10   R(5,7)                  0.9797         estimate D2E/DX2                !
 ! R11   R(8,9)                  0.9803         estimate D2E/DX2                !
 ! R12   R(8,10)                 0.9819         estimate D2E/DX2                !
 ! R13   R(11,14)                0.9804         estimate D2E/DX2                !
 ! R14   R(11,15)                0.9809         estimate D2E/DX2                !
 ! R15   R(12,16)                0.981          estimate D2E/DX2                !
 ! R16   R(12,17)                0.9797         estimate D2E/DX2                !
 ! R17   R(13,18)                0.9803         estimate D2E/DX2                !
 ! R18   R(13,19)                0.9819         estimate D2E/DX2                !
 ! A1    A(2,1,5)               92.9606         estimate D2E/DX2                !
 ! A2    A(2,1,8)               87.7112         estimate D2E/DX2                !
 ! A3    A(2,1,12)              87.0394         estimate D2E/DX2                !
 ! A4    A(2,1,13)              92.2888         estimate D2E/DX2                !
 ! A5    A(5,1,8)               87.5653         estimate D2E/DX2                !
 ! A6    A(5,1,11)              87.0394         estimate D2E/DX2                !
 ! A7    A(5,1,13)              92.4347         estimate D2E/DX2                !
 ! A8    A(8,1,11)              92.2888         estimate D2E/DX2                !
 ! A9    A(8,1,12)              92.4347         estimate D2E/DX2                !
 ! A10   A(11,1,12)             92.9606         estimate D2E/DX2                !
 ! A11   A(11,1,13)             87.7112         estimate D2E/DX2                !
 ! A12   A(12,1,13)             87.5653         estimate D2E/DX2                !
 ! A13   A(1,2,3)              127.1613         estimate D2E/DX2                !
 ! A14   A(1,2,4)              126.4534         estimate D2E/DX2                !
 ! A15   A(3,2,4)              106.1336         estimate D2E/DX2                !
 ! A16   A(1,5,6)              126.7329         estimate D2E/DX2                !
 ! A17   A(1,5,7)              126.6622         estimate D2E/DX2                !
 ! A18   A(6,5,7)              106.1428         estimate D2E/DX2                !
 ! A19   A(1,8,9)              126.6764         estimate D2E/DX2                !
 ! A20   A(1,8,10)             126.8695         estimate D2E/DX2                !
 ! A21   A(9,8,10)             106.2277         estimate D2E/DX2                !
 ! A22   A(1,11,14)            127.1613         estimate D2E/DX2                !
 ! A23   A(1,11,15)            126.4534         estimate D2E/DX2                !
 ! A24   A(14,11,15)           106.1336         estimate D2E/DX2                !
 ! A25   A(1,12,16)            126.7329         estimate D2E/DX2                !
 ! A26   A(1,12,17)            126.6622         estimate D2E/DX2                !
 ! A27   A(16,12,17)           106.1428         estimate D2E/DX2                !
 ! A28   A(1,13,18)            126.6764         estimate D2E/DX2                !
 ! A29   A(1,13,19)            126.8695         estimate D2E/DX2                !
 ! A30   A(18,13,19)           106.2277         estimate D2E/DX2                !
 ! A31   L(2,1,11,5,-1)        180.0            estimate D2E/DX2                !
 ! A32   L(5,1,12,2,-1)        180.0            estimate D2E/DX2                !
 ! A33   L(8,1,13,2,-1)        180.0            estimate D2E/DX2                !
 ! A34   L(2,1,11,5,-2)        180.0            estimate D2E/DX2                !
 ! A35   L(5,1,12,2,-2)        180.0            estimate D2E/DX2                !
 ! A36   L(8,1,13,2,-2)        180.0            estimate D2E/DX2                !
 ! D1    D(5,1,2,3)             37.4896         estimate D2E/DX2                !
 ! D2    D(5,1,2,4)           -135.9353         estimate D2E/DX2                !
 ! D3    D(8,1,2,3)            -49.9519         estimate D2E/DX2                !
 ! D4    D(8,1,2,4)            136.6232         estimate D2E/DX2                !
 ! D5    D(12,1,2,3)          -142.5104         estimate D2E/DX2                !
 ! D6    D(12,1,2,4)            44.0647         estimate D2E/DX2                !
 ! D7    D(13,1,2,3)           130.0481         estimate D2E/DX2                !
 ! D8    D(13,1,2,4)           -43.3768         estimate D2E/DX2                !
 ! D9    D(3,2,11,14)          180.0            estimate D2E/DX2                !
 ! D10   D(3,2,11,15)           -6.5751         estimate D2E/DX2                !
 ! D11   D(4,2,11,14)            6.5751         estimate D2E/DX2                !
 ! D12   D(4,2,11,15)          180.0            estimate D2E/DX2                !
 ! D13   D(2,1,5,6)            -41.0722         estimate D2E/DX2                !
 ! D14   D(2,1,5,7)            130.0294         estimate D2E/DX2                !
 ! D15   D(8,1,5,6)             46.5078         estimate D2E/DX2                !
 ! D16   D(8,1,5,7)           -142.3906         estimate D2E/DX2                !
 ! D17   D(11,1,5,6)           138.9278         estimate D2E/DX2                !
 ! D18   D(11,1,5,7)           -49.9706         estimate D2E/DX2                !
 ! D19   D(13,1,5,6)          -133.4922         estimate D2E/DX2                !
 ! D20   D(13,1,5,7)            37.6094         estimate D2E/DX2                !
 ! D21   D(6,5,12,16)          180.0            estimate D2E/DX2                !
 ! D22   D(6,5,12,17)            8.8984         estimate D2E/DX2                !
 ! D23   D(7,5,12,16)           -8.8984         estimate D2E/DX2                !
 ! D24   D(7,5,12,17)          180.0            estimate D2E/DX2                !
 ! D25   D(2,1,8,9)            142.6792         estimate D2E/DX2                !
 ! D26   D(2,1,8,10)           -43.5524         estimate D2E/DX2                !
 ! D27   D(5,1,8,9)             49.616          estimate D2E/DX2                !
 ! D28   D(5,1,8,10)          -136.6156         estimate D2E/DX2                !
 ! D29   D(11,1,8,9)           -37.3208         estimate D2E/DX2                !
 ! D30   D(11,1,8,10)          136.4476         estimate D2E/DX2                !
 ! D31   D(12,1,8,9)          -130.384          estimate D2E/DX2                !
 ! D32   D(12,1,8,10)           43.3844         estimate D2E/DX2                !
 ! D33   D(9,8,13,18)          180.0            estimate D2E/DX2                !
 ! D34   D(9,8,13,19)            6.2316         estimate D2E/DX2                !
 ! D35   D(10,8,13,18)          -6.2316         estimate D2E/DX2                !
 ! D36   D(10,8,13,19)         180.0            estimate D2E/DX2                !
 ! D37   D(5,1,11,14)          142.5104         estimate D2E/DX2                !
 ! D38   D(5,1,11,15)          -44.0647         estimate D2E/DX2                !
 ! D39   D(8,1,11,14)         -130.0481         estimate D2E/DX2                !
 ! D40   D(8,1,11,15)           43.3768         estimate D2E/DX2                !
 ! D41   D(12,1,11,14)         -37.4896         estimate D2E/DX2                !
 ! D42   D(12,1,11,15)         135.9353         estimate D2E/DX2                !
 ! D43   D(13,1,11,14)          49.9519         estimate D2E/DX2                !
 ! D44   D(13,1,11,15)        -136.6232         estimate D2E/DX2                !
 ! D45   D(2,1,12,16)         -138.9278         estimate D2E/DX2                !
 ! D46   D(2,1,12,17)           49.9706         estimate D2E/DX2                !
 ! D47   D(8,1,12,16)          133.4922         estimate D2E/DX2                !
 ! D48   D(8,1,12,17)          -37.6094         estimate D2E/DX2                !
 ! D49   D(11,1,12,16)          41.0722         estimate D2E/DX2                !
 ! D50   D(11,1,12,17)        -130.0294         estimate D2E/DX2                !
 ! D51   D(13,1,12,16)         -46.5078         estimate D2E/DX2                !
 ! D52   D(13,1,12,17)         142.3906         estimate D2E/DX2                !
 ! D53   D(2,1,13,18)           37.3208         estimate D2E/DX2                !
 ! D54   D(2,1,13,19)         -136.4476         estimate D2E/DX2                !
 ! D55   D(5,1,13,18)          130.384          estimate D2E/DX2                !
 ! D56   D(5,1,13,19)          -43.3844         estimate D2E/DX2                !
 ! D57   D(11,1,13,18)        -142.6792         estimate D2E/DX2                !
 ! D58   D(11,1,13,19)          43.5524         estimate D2E/DX2                !
 ! D59   D(12,1,13,18)         -49.616          estimate D2E/DX2                !
 ! D60   D(12,1,13,19)         136.6156         estimate D2E/DX2                !
 --------------------------------------------------------------------------------
 Trust Radius=3.00D-01 FncErr=1.00D-07 GrdErr=1.00D-06
 Number of steps in this run=    114 maximum allowed number of steps=    114.
 GradGradGradGradGradGradGradGradGradGradGradGradGradGradGradGradGradGrad

                          Input orientation:                          
 ---------------------------------------------------------------------
 Center     Atomic      Atomic             Coordinates (Angstroms)
 Number     Number       Type             X           Y           Z
 ---------------------------------------------------------------------
      1         22           0        0.000000    0.000000    0.000000
      2          8           0       -0.166198    2.193916    0.079238
      3          1           0       -0.687879    2.770285   -0.518142
      4          1           0        0.339500    2.795900    0.665765
      5          8           0       -0.001360   -0.034691   -2.200120
      6          1           0       -0.561588    0.507923   -2.795102
      7          1           0        0.636539   -0.502372   -2.778185
      8          8           0       -2.197137   -0.074977   -0.090941
      9          1           0       -2.740462   -0.700681   -0.614600
     10          1           0       -2.827341    0.452312    0.446532
     11          8           0        0.166198   -2.193916   -0.079238
     12          8           0        0.001360    0.034691    2.200120
     13          8           0        2.197137    0.074977    0.090941
     14          1           0        0.687879   -2.770285    0.518142
     15          1           0       -0.339500   -2.795900   -0.665765
     16          1           0        0.561588   -0.507923    2.795102
     17          1           0       -0.636539    0.502372    2.778185
     18          1           0        2.740462    0.700681    0.614600
     19          1           0        2.827341   -0.452312   -0.446532
 ---------------------------------------------------------------------
                    Distance matrix (angstroms):
                    1          2          3          4          5
     1  Ti   0.000000
     2  O    2.201629   0.000000
     3  H    2.901057   0.980416   0.000000
     4  H    2.894056   0.980882   1.567737   0.000000
     5  O    2.200394   3.192074   3.341893   4.042490   0.000000
     6  H    2.895852   3.355702   3.212286   4.245515   0.980962
     7  H    2.894110   4.009890   4.191916   4.777826   0.979694
     8  O    2.200296   3.049845   3.248982   3.905006   3.044946
     9  H    2.894619   3.935344   4.033610   4.832347   3.234207
    10  H    2.897902   3.201527   3.298620   3.945801   3.902321
    11  O    2.201629   4.403258   5.056222   5.048101   3.031250
    12  O    2.200394   3.031250   3.917586   3.176926   4.400789
    13  O    2.200296   3.174176   3.994870   3.344347   3.177165
    14  H    2.901057   5.056222   5.802114   5.579030   3.917586
    15  H    2.894056   5.048101   5.579030   5.788112   3.176926
    16  H    2.895852   3.899426   4.825495   3.936831   5.049070
    17  H    2.894110   3.219761   4.001480   3.267299   5.047317
    18  H    2.894619   3.311350   4.161717   3.187033   3.997626
    19  H    2.897902   4.029917   4.769385   4.239981   3.354256
                    6          7          8          9         10
     6  H    0.000000
     7  H    1.567319   0.000000
     8  O    3.213609   3.928571   0.000000
     9  H    3.311012   4.015540   0.980268   0.000000
    10  H    3.955366   4.827907   0.981869   1.569376   0.000000
    11  O    3.899426   3.219761   3.174176   3.311350   4.029917
    12  O    5.049070   5.047317   3.177165   3.997626   3.354256
    13  O    4.015875   3.316727   4.400593   5.047704   5.051159
    14  H    4.825495   4.001480   3.994870   4.161717   4.769385
    15  H    3.936831   3.267299   3.344347   3.187033   4.239981
    16  H    5.791705   5.573793   4.015875   4.750448   4.233518
    17  H    5.573793   5.788219   3.316727   4.169510   3.199801
    18  H    4.750448   4.169510   5.047704   5.789238   5.575873
    19  H    4.233518   3.199801   5.051159   5.575873   5.795803
                   11         12         13         14         15
    11  O    0.000000
    12  O    3.192074   0.000000
    13  O    3.049845   3.044946   0.000000
    14  H    0.980416   3.341893   3.248982   0.000000
    15  H    0.980882   4.042490   3.905006   1.567737   0.000000
    16  H    3.355702   0.980962   3.213609   3.212286   4.245515
    17  H    4.009890   0.979694   3.928571   4.191916   4.777826
    18  H    3.935344   3.234207   0.980268   4.033610   4.832347
    19  H    3.201527   3.902321   0.981869   3.298620   3.945801
                   16         17         18         19
    16  H    0.000000
    17  H    1.567319   0.000000
    18  H    3.311012   4.015540   0.000000
    19  H    3.955366   4.827907   1.569376   0.000000
 Stoichiometry    H12O6Ti(2+,3)
 Framework group  CI[O(Ti),X(H12O6)]
 Deg. of freedom    24
 Full point group                 CI      NOp   2
 Largest Abelian subgroup         CI      NOp   2
 Largest concise Abelian subgroup CI      NOp   2
                         Standard orientation:                         
 ---------------------------------------------------------------------
 Center     Atomic      Atomic             Coordinates (Angstroms)
 Number     Number       Type             X           Y           Z
 ---------------------------------------------------------------------
      1         22           0        0.000000    0.000000    0.000000
      2          8           0       -0.166198    2.193916    0.079238
      3          1           0       -0.687879    2.770285   -0.518142
      4          1           0        0.339500    2.795900    0.665765
      5          8           0       -0.001360   -0.034691   -2.200120
      6          1           0       -0.561588    0.507923   -2.795102
      7          1           0        0.636539   -0.502372   -2.778185
      8          8           0       -2.197137   -0.074977   -0.090941
      9          1           0       -2.740462   -0.700681   -0.614600
     10          1           0       -2.827341    0.452312    0.446532
     11          8           0        0.166198   -2.193916   -0.079238
     12          8           0        0.001360    0.034691    2.200120
     13          8           0        2.197137    0.074977    0.090941
     14          1           0        0.687879   -2.770285    0.518142
     15          1           0       -0.339500   -2.795900   -0.665765
     16          1           0        0.561588   -0.507923    2.795102
     17          1           0       -0.636539    0.502372    2.778185
     18          1           0        2.740462    0.700681    0.614600
     19          1           0        2.827341   -0.452312   -0.446532
 ---------------------------------------------------------------------
 Rotational constants (GHZ):      1.3755367      1.3658187      1.2790849
 Standard basis: 6-311++G(2d,2p) (5D, 7F)
 There are   181 symmetry adapted cartesian basis functions of AG  symmetry.
 There are   188 symmetry adapted cartesian basis functions of AU  symmetry.
 There are   171 symmetry adapted basis functions of AG  symmetry.
 There are   176 symmetry adapted basis functions of AU  symmetry.
   347 basis functions,   500 primitive gaussians,   369 cartesian basis functions
    41 alpha electrons       39 beta electrons
       nuclear repulsion energy       583.9512248740 Hartrees.
 NAtoms=   19 NActive=   19 NUniq=   10 SFac= 3.61D+00 NAtFMM=   60 NAOKFM=F Big=F
 Integral buffers will be    131072 words long.
 Raffenetti 2 integral format.
 Two-electron integral symmetry is turned on.
 One-electron integrals computed using PRISM.
 NBasis=   347 RedAO= T EigKep=  1.22D-04  NBF=   171   176
 NBsUse=   347 1.00D-06 EigRej= -1.00D+00 NBFU=   171   176
 ExpMin= 9.99D-03 ExpMax= 2.06D+05 ExpMxC= 7.20D+03 IAcc=3 IRadAn=         5 AccDes= 0.00D+00
 Harris functional with IExCor= 1009 and IRadAn=       5 diagonalized for initial guess.
 HarFok:  IExCor= 1009 AccDes= 0.00D+00 IRadAn=         5 IDoV= 1 UseB2=F ITyADJ=14
 ICtDFT=  3500011 ScaDFX=  1.000000  1.000000  1.000000  1.000000
 FoFCou: FMM=F IPFlag=           0 FMFlag=      100000 FMFlg1=           0
         NFxFlg=           0 DoJE=T BraDBF=F KetDBF=T FulRan=T
         wScrn=  0.000000 ICntrl=     500 IOpCl=  0 I1Cent=   200000004 NGrid=           0
         NMat0=    1 NMatS0=      1 NMatT0=    0 NMatD0=    1 NMtDS0=    0 NMtDT0=    0
 Petite list used in FoFCou.
 Initial guess orbital symmetries:
 Alpha Orbitals:
       Occupied  (AG) (AG) (AU) (AG) (AU) (AG) (AG) (AU) (AU) (AU)
                 (AU) (AG) (AU) (AU) (AU) (AG) (AG) (AG) (AU) (AU)
                 (AU) (AG) (AG) (AU) (AU) (AU) (AG) (AG) (AG) (AG)
                 (AU) (AU) (AU) (AG) (AU) (AU) (AU) (AG) (AG) (AG)
                 (AG)
       Virtual   (AG) (AG) (AG) (AG) (AU) (AU) (AU) (AG) (AG) (AG)
                 (AG) (AU) (AU) (AG) (AU) (AG) (AU) (AG) (AU) (AU)
                 (AU) (AG) (AG) (AG) (AU) (AU) (AU) (AU) (AG) (AG)
                 (AU) (AG) (AU) (AG) (AG) (AG) (AU) (AG) (AU) (AU)
                 (AG) (AG) (AG) (AG) (AG) (AU) (AU) (AU) (AU) (AU)
                 (AG) (AG) (AU) (AG) (AG) (AU) (AU) (AU) (AU) (AG)
                 (AG) (AU) (AG) (AG) (AU) (AG) (AG) (AU) (AU) (AG)
                 (AU) (AG) (AU) (AU) (AG) (AG) (AG) (AG) (AU) (AU)
                 (AU) (AG) (AG) (AU) (AU) (AU) (AG) (AG) (AU) (AU)
                 (AG) (AU) (AU) (AG) (AG) (AG) (AG) (AG) (AU) (AU)
                 (AG) (AU) (AU) (AU) (AG) (AG) (AU) (AU) (AG) (AG)
                 (AG) (AU) (AU) (AG) (AG) (AG) (AU) (AU) (AU) (AG)
                 (AG) (AG) (AU) (AU) (AG) (AU) (AU) (AU) (AU) (AU)
                 (AG) (AG) (AU) (AU) (AG) (AG) (AG) (AG) (AG) (AG)
                 (AU) (AU) (AU) (AU) (AU) (AU) (AG) (AG) (AU) (AG)
                 (AG) (AG) (AU) (AU) (AU) (AG) (AG) (AG) (AU) (AU)
                 (AU) (AG) (AU) (AU) (AG) (AG) (AG) (AU) (AU) (AU)
                 (AG) (AG) (AG) (AU) (AU) (AU) (AU) (AG) (AG) (AU)
                 (AU) (AU) (AG) (AG) (AG) (AU) (AU) (AG) (AG) (AG)
                 (AG) (AG) (AU) (AU) (AU) (AG) (AU) (AU) (AG) (AU)
                 (AG) (AG) (AU) (AU) (AG) (AG) (AU) (AU) (AG) (AG)
                 (AG) (AU) (AG) (AG) (AU) (AU) (AU) (AU) (AU) (AU)
                 (AU) (AU) (AG) (AG) (AG) (AG) (AG) (AU) (AU) (AG)
                 (AG) (AU) (AU) (AG) (AU) (AG) (AG) (AU) (AG) (AG)
                 (AU) (AU) (AU) (AU) (AU) (AG) (AG) (AG) (AU) (AG)
                 (AG) (AU) (AU) (AU) (AG) (AU) (AU) (AU) (AG) (AG)
                 (AG) (AU) (AU) (AU) (AG) (AU) (AG) (AG) (AU) (AU)
                 (AG) (AG) (AU) (AG) (AU) (AU) (AG) (AG) (AG) (AU)
                 (AU) (AU) (AG) (AG) (AG) (AU) (AU) (AU) (AG) (AG)
                 (AU) (AU) (AU) (AG) (AG) (AU) (AU) (AU) (AU) (AG)
                 (AG) (AG) (AU) (AU) (AG) (AG)
 Beta  Orbitals:
       Occupied  (AG) (AG) (AU) (AG) (AU) (AG) (AG) (AU) (AU) (AU)
                 (AU) (AG) (AU) (AU) (AU) (AG) (AG) (AG) (AU) (AU)
                 (AU) (AG) (AG) (AU) (AU) (AU) (AG) (AG) (AG) (AG)
                 (AU) (AU) (AU) (AG) (AU) (AU) (AU) (AG) (AG)
       Virtual   (AG) (AG) (AG) (AG) (AG) (AG) (AU) (AU) (AU) (AG)
                 (AG) (AG) (AG) (AU) (AU) (AG) (AU) (AG) (AU) (AG)
                 (AU) (AU) (AU) (AG) (AG) (AG) (AU) (AU) (AU) (AU)
                 (AG) (AG) (AU) (AG) (AU) (AG) (AG) (AG) (AU) (AG)
                 (AU) (AU) (AG) (AG) (AG) (AG) (AG) (AU) (AU) (AU)
                 (AU) (AU) (AG) (AG) (AU) (AG) (AG) (AU) (AU) (AU)
                 (AU) (AG) (AG) (AU) (AG) (AG) (AU) (AG) (AG) (AU)
                 (AU) (AG) (AU) (AG) (AU) (AU) (AG) (AG) (AG) (AG)
                 (AU) (AU) (AU) (AG) (AG) (AU) (AU) (AU) (AG) (AG)
                 (AU) (AU) (AG) (AU) (AU) (AG) (AG) (AG) (AG) (AG)
                 (AU) (AU) (AG) (AU) (AU) (AU) (AG) (AG) (AU) (AU)
                 (AG) (AG) (AG) (AU) (AU) (AG) (AG) (AG) (AU) (AU)
                 (AU) (AG) (AG) (AG) (AU) (AU) (AG) (AU) (AU) (AU)
                 (AU) (AU) (AG) (AG) (AU) (AU) (AG) (AG) (AG) (AG)
                 (AG) (AG) (AU) (AU) (AU) (AU) (AU) (AU) (AG) (AG)
                 (AU) (AG) (AG) (AG) (AU) (AU) (AU) (AG) (AG) (AG)
                 (AU) (AU) (AU) (AG) (AU) (AU) (AG) (AG) (AG) (AU)
                 (AU) (AU) (AG) (AG) (AG) (AU) (AU) (AU) (AU) (AG)
                 (AG) (AU) (AU) (AU) (AG) (AG) (AG) (AU) (AU) (AG)
                 (AG) (AG) (AG) (AG) (AU) (AU) (AU) (AG) (AU) (AU)
                 (AG) (AU) (AG) (AG) (AU) (AU) (AG) (AG) (AU) (AU)
                 (AG) (AG) (AG) (AU) (AG) (AG) (AU) (AU) (AU) (AU)
                 (AU) (AU) (AU) (AU) (AG) (AG) (AG) (AG) (AG) (AU)
                 (AU) (AG) (AG) (AU) (AU) (AG) (AU) (AG) (AG) (AU)
                 (AG) (AG) (AU) (AU) (AU) (AU) (AU) (AG) (AG) (AG)
                 (AU) (AG) (AG) (AU) (AU) (AU) (AG) (AU) (AU) (AU)
                 (AG) (AG) (AG) (AU) (AU) (AU) (AG) (AU) (AG) (AG)
                 (AU) (AU) (AG) (AG) (AU) (AG) (AU) (AU) (AG) (AG)
                 (AG) (AU) (AU) (AU) (AG) (AG) (AG) (AU) (AU) (AU)
                 (AG) (AG) (AU) (AU) (AU) (AG) (AG) (AU) (AU) (AU)
                 (AU) (AG) (AG) (AG) (AU) (AU) (AG) (AG)
 The electronic state of the initial guess is 3-AG.
 Initial guess <Sx>= 0.0000 <Sy>= 0.0000 <Sz>= 1.0000 <S**2>= 2.0000 S= 1.0000
 Keep R1 and R2 ints in memory in symmetry-blocked form, NReq=2734803760.
 Requested convergence on RMS density matrix=1.00D-08 within 128 cycles.
 Requested convergence on MAX density matrix=1.00D-06.
 Requested convergence on             energy=1.00D-06.
 No special actions if energy rises.
 SCF Done:  E(UM062X) =  -1307.60613774     A.U. after   20 cycles
            NFock= 20  Conv=0.45D-08     -V/T= 2.0021
 <Sx>= 0.0000 <Sy>= 0.0000 <Sz>= 1.0000 <S**2>= 2.0018 S= 1.0006
 <L.S>= 0.000000000000E+00
 Annihilation of the first spin contaminant:
 S**2 before annihilation     2.0018,   after     2.0000

 **********************************************************************

            Population analysis using the SCF density.

 **********************************************************************

 Orbital symmetries:
 Alpha Orbitals:
       Occupied  (AG) (AG) (AU) (AG) (AU) (AG) (AU) (AG) (AU) (AU)
                 (AU) (AG) (AU) (AU) (AU) (AG) (AG) (AU) (AG) (AU)
                 (AU) (AG) (AG) (AU) (AU) (AU) (AG) (AG) (AG) (AG)
                 (AU) (AU) (AU) (AG) (AU) (AU) (AU) (AG) (AG) (AG)
                 (AG)
       Virtual   (AG) (AU) (AU) (AU) (AG) (AG) (AG) (AG) (AG) (AU)
                 (AU) (AU) (AG) (AG) (AG) (AG) (AU) (AU) (AU) (AU)
                 (AG) (AG) (AG) (AG) (AU) (AU) (AU) (AG) (AG) (AU)
                 (AG) (AU) (AU) (AG) (AG) (AG) (AU) (AG) (AG) (AU)
                 (AG) (AU) (AU) (AU) (AG) (AG) (AU) (AG) (AU) (AU)
                 (AG) (AG) (AU) (AG) (AG) (AU) (AU) (AU) (AG) (AG)
                 (AU) (AU) (AG) (AG) (AU) (AG) (AG) (AG) (AU) (AU)
                 (AU) (AG) (AU) (AU) (AG) (AG) (AG) (AG) (AU) (AU)
                 (AU) (AU) (AG) (AG) (AU) (AU) (AU) (AU) (AG) (AG)
                 (AG) (AU) (AU) (AG) (AG) (AG) (AG) (AG) (AU) (AU)
                 (AU) (AG) (AG) (AG) (AU) (AU) (AU) (AU) (AG) (AU)
                 (AU) (AG) (AG) (AG) (AG) (AU) (AG) (AU) (AU) (AG)
                 (AG) (AG) (AU) (AU) (AG) (AU) (AU) (AU) (AU) (AG)
                 (AG) (AU) (AU) (AU) (AG) (AG) (AG) (AG) (AU) (AU)
                 (AU) (AU) (AG) (AG) (AU) (AU) (AG) (AG) (AU) (AG)
                 (AU) (AU) (AG) (AG) (AU) (AG) (AU) (AU) (AG) (AG)
                 (AU) (AG) (AU) (AU) (AG) (AG) (AG) (AU) (AU) (AU)
                 (AG) (AG) (AU) (AG) (AU) (AU) (AU) (AG) (AG) (AU)
                 (AU) (AU) (AG) (AG) (AG) (AU) (AU) (AG) (AG) (AG)
                 (AG) (AG) (AU) (AU) (AU) (AU) (AU) (AG) (AU) (AG)
                 (AG) (AG) (AU) (AU) (AU) (AG) (AG) (AU) (AU) (AG)
                 (AG) (AG) (AU) (AU) (AG) (AG) (AG) (AU) (AU) (AU)
                 (AG) (AG) (AU) (AU) (AU) (AU) (AU) (AG) (AG) (AG)
                 (AG) (AG) (AU) (AU) (AU) (AG) (AG) (AU) (AU) (AG)
                 (AG) (AU) (AU) (AU) (AU) (AG) (AG) (AG) (AU) (AG)
                 (AG) (AU) (AU) (AU) (AG) (AU) (AU) (AU) (AG) (AG)
                 (AG) (AU) (AU) (AU) (AG) (AU) (AG) (AU) (AG) (AU)
                 (AG) (AG) (AU) (AG) (AU) (AU) (AG) (AG) (AG) (AU)
                 (AU) (AU) (AG) (AG) (AG) (AU) (AU) (AU) (AG) (AG)
                 (AU) (AU) (AU) (AG) (AG) (AU) (AU) (AU) (AU) (AG)
                 (AG) (AG) (AU) (AU) (AG) (AG)
 Beta  Orbitals:
       Occupied  (AG) (AG) (AU) (AG) (AU) (AG) (AU) (AG) (AU) (AU)
                 (AU) (AG) (AU) (AU) (AU) (AG) (AG) (AG) (AU) (AU)
                 (AU) (AG) (AG) (AU) (AU) (AU) (AG) (AG) (AG) (AG)
                 (AU) (AU) (AU) (AG) (AU) (AU) (AU) (AG) (AG)
       Virtual   (AG) (AU) (AU) (AU) (AG) (AG) (AG) (AG) (AG) (AG)
                 (AG) (AU) (AU) (AU) (AG) (AU) (AG) (AU) (AU) (AU)
                 (AG) (AG) (AG) (AG) (AU) (AU) (AG) (AG) (AU) (AG)
                 (AG) (AU) (AG) (AU) (AU) (AG) (AG) (AG) (AG) (AG)
                 (AU) (AU) (AG) (AU) (AU) (AU) (AG) (AG) (AU) (AG)
                 (AU) (AU) (AG) (AG) (AU) (AG) (AG) (AU) (AU) (AU)
                 (AG) (AG) (AU) (AU) (AG) (AG) (AU) (AG) (AG) (AG)
                 (AU) (AG) (AU) (AU) (AU) (AU) (AG) (AG) (AG) (AG)
                 (AU) (AU) (AU) (AU) (AG) (AG) (AU) (AU) (AU) (AU)
                 (AG) (AG) (AG) (AU) (AU) (AG) (AG) (AG) (AG) (AG)
                 (AU) (AU) (AU) (AG) (AG) (AG) (AU) (AU) (AU) (AG)
                 (AU) (AU) (AU) (AG) (AG) (AG) (AG) (AU) (AG) (AU)
                 (AU) (AG) (AU) (AU) (AG) (AG) (AG) (AU) (AU) (AU)
                 (AU) (AG) (AG) (AU) (AU) (AU) (AG) (AG) (AG) (AG)
                 (AG) (AU) (AG) (AU) (AU) (AU) (AU) (AU) (AG) (AG)
                 (AU) (AG) (AU) (AU) (AG) (AG) (AU) (AG) (AU) (AU)
                 (AG) (AG) (AU) (AG) (AU) (AU) (AG) (AG) (AG) (AU)
                 (AU) (AU) (AG) (AG) (AU) (AG) (AU) (AU) (AU) (AG)
                 (AG) (AU) (AU) (AU) (AG) (AG) (AG) (AU) (AU) (AG)
                 (AG) (AG) (AG) (AG) (AU) (AU) (AU) (AU) (AU) (AG)
                 (AU) (AG) (AG) (AG) (AU) (AU) (AU) (AG) (AG) (AU)
                 (AU) (AG) (AU) (AU) (AG) (AG) (AG) (AG) (AG) (AU)
                 (AU) (AG) (AU) (AG) (AU) (AU) (AU) (AG) (AU) (AU)
                 (AG) (AG) (AG) (AG) (AU) (AU) (AU) (AG) (AG) (AU)
                 (AG) (AG) (AU) (AU) (AU) (AU) (AU) (AG) (AG) (AG)
                 (AU) (AG) (AG) (AU) (AU) (AU) (AG) (AU) (AU) (AU)
                 (AG) (AG) (AG) (AU) (AU) (AU) (AG) (AU) (AG) (AU)
                 (AG) (AU) (AG) (AG) (AU) (AG) (AU) (AU) (AG) (AG)
                 (AG) (AU) (AU) (AU) (AG) (AG) (AG) (AU) (AU) (AU)
                 (AG) (AG) (AU) (AU) (AU) (AG) (AG) (AU) (AU) (AU)
                 (AU) (AG) (AG) (AG) (AU) (AU) (AG) (AG)
 The electronic state is 3-AG.
 Alpha  occ. eigenvalues -- -180.59976 -20.57305 -19.95598 -19.95598 -19.95582
 Alpha  occ. eigenvalues --  -19.95582 -19.95580 -19.95580 -17.28218 -17.27804
 Alpha  occ. eigenvalues --  -17.27793  -2.79540  -1.87918  -1.87909  -1.87655
 Alpha  occ. eigenvalues --   -1.46035  -1.45446  -1.45444  -1.45418  -1.45406
 Alpha  occ. eigenvalues --   -1.45319  -0.93713  -0.93683  -0.93199  -0.93178
 Alpha  occ. eigenvalues --   -0.92988  -0.92257  -0.85987  -0.83191  -0.83184
 Alpha  occ. eigenvalues --   -0.82502  -0.82443  -0.82092  -0.75181  -0.73420
 Alpha  occ. eigenvalues --   -0.73012  -0.72975  -0.72800  -0.72723  -0.52616
 Alpha  occ. eigenvalues --   -0.52589
 Alpha virt. eigenvalues --   -0.28448  -0.24880  -0.24847  -0.24464  -0.23997
 Alpha virt. eigenvalues --   -0.22435  -0.22414  -0.20183  -0.20154  -0.17089
 Alpha virt. eigenvalues --   -0.17059  -0.16550  -0.15740  -0.15735  -0.15334
 Alpha virt. eigenvalues --   -0.13690  -0.13601  -0.13457  -0.12953  -0.12919
 Alpha virt. eigenvalues --   -0.12539  -0.08961  -0.08133  -0.08105  -0.07964
 Alpha virt. eigenvalues --   -0.07802  -0.06775  -0.05549  -0.04630  -0.04608
 Alpha virt. eigenvalues --   -0.04584  -0.04575  -0.03363  -0.03282  -0.03263
 Alpha virt. eigenvalues --   -0.02940  -0.01213  -0.01212  -0.01201  -0.01110
 Alpha virt. eigenvalues --   -0.00898   0.00513   0.02228   0.02279   0.02407
 Alpha virt. eigenvalues --    0.02461   0.02592   0.02678   0.03206   0.03313
 Alpha virt. eigenvalues --    0.04178   0.04332   0.06744   0.10842   0.14540
 Alpha virt. eigenvalues --    0.15458   0.16420   0.16665   0.16862   0.17075
 Alpha virt. eigenvalues --    0.17760   0.18095   0.19812   0.20001   0.28068
 Alpha virt. eigenvalues --    0.29955   0.30379   0.30399   0.30730   0.31254
 Alpha virt. eigenvalues --    0.31326   0.31388   0.34396   0.34508   0.35018
 Alpha virt. eigenvalues --    0.35910   0.36088   0.42865   0.45982   0.46333
 Alpha virt. eigenvalues --    0.47316   0.49010   0.49649   0.49701   0.53133
 Alpha virt. eigenvalues --    0.53423   0.55972   0.56052   0.56183   0.56339
 Alpha virt. eigenvalues --    0.58462   0.58813   0.60272   0.62165   0.62336
 Alpha virt. eigenvalues --    0.65675   0.68681   0.68741   0.69027   0.69632
 Alpha virt. eigenvalues --    0.69873   0.70759   0.75329   0.75632   0.76809
 Alpha virt. eigenvalues --    0.76994   0.78197   0.82779   0.83104   0.85111
 Alpha virt. eigenvalues --    0.85290   0.87838   0.87955   0.90579   0.94029
 Alpha virt. eigenvalues --    0.94199   0.94256   0.94569   0.97270   1.00406
 Alpha virt. eigenvalues --    1.03294   1.03455   1.04238   1.04317   1.05621
 Alpha virt. eigenvalues --    1.07585   1.08259   1.08401   1.13084   1.15022
 Alpha virt. eigenvalues --    1.15049   1.15452   1.17246   1.17467   1.18726
 Alpha virt. eigenvalues --    1.20610   1.20652   1.20747   1.24861   1.24973
 Alpha virt. eigenvalues --    1.25997   1.26671   1.27631   1.27730   1.30580
 Alpha virt. eigenvalues --    1.31144   1.39763   1.40127   1.43115   1.46647
 Alpha virt. eigenvalues --    1.47988   1.48359   1.48992   1.49306   1.49757
 Alpha virt. eigenvalues --    1.51011   1.53051   1.53464   1.53551   1.53702
 Alpha virt. eigenvalues --    1.57389   1.60393   1.64440   1.64793   1.75621
 Alpha virt. eigenvalues --    1.88269   1.88349   1.90514   1.93528   1.93832
 Alpha virt. eigenvalues --    1.97040   1.97162   1.98267   2.00912   2.09557
 Alpha virt. eigenvalues --    2.09899   2.13048   2.14517   2.14885   2.16097
 Alpha virt. eigenvalues --    2.16615   2.23128   2.24741   2.27798   2.27918
 Alpha virt. eigenvalues --    2.29492   2.30193   2.34867   2.41584   2.60018
 Alpha virt. eigenvalues --    2.60136   2.60338   2.62712   2.63078   2.63355
 Alpha virt. eigenvalues --    3.42424   3.42748   3.43565   3.43917   3.50063
 Alpha virt. eigenvalues --    3.51023   3.51208   3.54226   3.55925   3.56064
 Alpha virt. eigenvalues --    3.56788   3.56841   3.57479   3.61467   3.61468
 Alpha virt. eigenvalues --    3.62991   3.63239   3.63551   3.63783   3.66437
 Alpha virt. eigenvalues --    3.66673   3.73066   3.73574   3.73923   3.74114
 Alpha virt. eigenvalues --    3.74849   3.75050   3.75091   3.77463   3.77602
 Alpha virt. eigenvalues --    3.82155   3.82189   3.82829   3.84788   3.84840
 Alpha virt. eigenvalues --    3.85828   3.90534   3.90767   3.90963   3.92152
 Alpha virt. eigenvalues --    3.93144   3.93285   3.97062   4.11053   4.11578
 Alpha virt. eigenvalues --    4.11722   4.13204   4.13456   4.86547   4.86921
 Alpha virt. eigenvalues --    4.91238   4.91479   4.91827   5.00010   5.43268
 Alpha virt. eigenvalues --    5.43525   5.45072   5.45225   5.47606   5.54485
 Alpha virt. eigenvalues --    5.58977   5.62380   5.62571   5.89627   5.92394
 Alpha virt. eigenvalues --    5.92477   5.93065   5.93424   5.94392   6.54462
 Alpha virt. eigenvalues --    6.54661   6.54725   6.54878   6.54916   6.55716
 Alpha virt. eigenvalues --    6.58011   6.58181   6.59828   6.61545   6.63681
 Alpha virt. eigenvalues --    6.63896   6.72177   6.88030   6.88190   6.92688
 Alpha virt. eigenvalues --    6.92735   6.92769   6.93142   6.94839   6.94993
 Alpha virt. eigenvalues --    7.00997   7.01088   7.03172   7.06879   7.07170
 Alpha virt. eigenvalues --    7.11118   7.13182   7.13437   7.25827  18.28045
 Alpha virt. eigenvalues --   24.24667  24.28356  24.28526  49.71154  49.73374
 Alpha virt. eigenvalues --   49.75247  49.75266  49.78252  49.78488 109.04386
 Alpha virt. eigenvalues --  596.09621
  Beta  occ. eigenvalues -- -180.60054 -20.55061 -19.95608 -19.95608 -19.95592
  Beta  occ. eigenvalues --  -19.95592 -19.95591 -19.95591 -17.26794 -17.25547
  Beta  occ. eigenvalues --  -17.25514  -2.72333  -1.80881  -1.77992  -1.77919
  Beta  occ. eigenvalues --   -1.46030  -1.45457  -1.45432  -1.45400  -1.45366
  Beta  occ. eigenvalues --   -1.45306  -0.93543  -0.93513  -0.93128  -0.93108
  Beta  occ. eigenvalues --   -0.92927  -0.92214  -0.85813  -0.83197  -0.83189
  Beta  occ. eigenvalues --   -0.82549  -0.82489  -0.82224  -0.75022  -0.73367
  Beta  occ. eigenvalues --   -0.72919  -0.72886  -0.72527  -0.72465
  Beta virt. eigenvalues --   -0.28360  -0.24867  -0.24838  -0.24463  -0.22022
  Beta virt. eigenvalues --   -0.21991  -0.20401  -0.20371  -0.20351  -0.19048
  Beta virt. eigenvalues --   -0.18980  -0.17010  -0.16982  -0.16467  -0.15098
  Beta virt. eigenvalues --   -0.13716  -0.13635  -0.13391  -0.12717  -0.12674
  Beta virt. eigenvalues --   -0.12491  -0.11801  -0.11795  -0.09055  -0.07741
  Beta virt. eigenvalues --   -0.07581  -0.07255  -0.07224  -0.06574  -0.04710
  Beta virt. eigenvalues --   -0.04276  -0.04244  -0.04237  -0.04222  -0.03169
  Beta virt. eigenvalues --   -0.02785  -0.02770  -0.02569  -0.01106  -0.01099
  Beta virt. eigenvalues --   -0.01039  -0.00938  -0.00769   0.01063   0.02252
  Beta virt. eigenvalues --    0.02317   0.02715   0.02829   0.02864   0.03371
  Beta virt. eigenvalues --    0.03847   0.03936   0.06444   0.06539   0.06746
  Beta virt. eigenvalues --    0.11740   0.15839   0.16278   0.16468   0.16836
  Beta virt. eigenvalues --    0.16875   0.17084   0.19249   0.19475   0.20595
  Beta virt. eigenvalues --    0.20763   0.28314   0.29890   0.30396   0.30423
  Beta virt. eigenvalues --    0.30642   0.31358   0.31610   0.31703   0.34463
  Beta virt. eigenvalues --    0.34578   0.34982   0.35907   0.36092   0.42858
  Beta virt. eigenvalues --    0.46073   0.46425   0.47706   0.49788   0.50223
  Beta virt. eigenvalues --    0.50272   0.54095   0.54450   0.56118   0.56217
  Beta virt. eigenvalues --    0.58254   0.58438   0.58813   0.60051   0.61003
  Beta virt. eigenvalues --    0.62289   0.62443   0.65828   0.69279   0.69337
  Beta virt. eigenvalues --    0.70296   0.70547   0.71653   0.72482   0.75454
  Beta virt. eigenvalues --    0.75764   0.77322   0.77504   0.78524   0.83254
  Beta virt. eigenvalues --    0.83816   0.85660   0.85889   0.89173   0.89282
  Beta virt. eigenvalues --    0.90688   0.94295   0.94388   0.94527   0.94774
  Beta virt. eigenvalues --    0.99279   1.00630   1.05616   1.05677   1.06012
  Beta virt. eigenvalues --    1.06219   1.06477   1.07862   1.09234   1.09328
  Beta virt. eigenvalues --    1.14081   1.15328   1.15362   1.16221   1.17597
  Beta virt. eigenvalues --    1.17784   1.18711   1.20799   1.20925   1.20947
  Beta virt. eigenvalues --    1.27629   1.27720   1.27726   1.28669   1.28750
  Beta virt. eigenvalues --    1.29692   1.32148   1.32596   1.40529   1.40921
  Beta virt. eigenvalues --    1.43670   1.47050   1.48417   1.48785   1.49091
  Beta virt. eigenvalues --    1.49376   1.49829   1.51020   1.53361   1.53779
  Beta virt. eigenvalues --    1.54316   1.54505   1.57679   1.60824   1.65449
  Beta virt. eigenvalues --    1.65786   1.76617   1.88893   1.88958   1.90952
  Beta virt. eigenvalues --    1.93941   1.94243   1.97890   1.97974   1.99082
  Beta virt. eigenvalues --    2.01114   2.10503   2.10866   2.14465   2.15633
  Beta virt. eigenvalues --    2.15992   2.16697   2.17141   2.23243   2.24786
  Beta virt. eigenvalues --    2.27896   2.28003   2.29847   2.30568   2.37772
  Beta virt. eigenvalues --    2.42225   2.60382   2.60546   2.60695   2.63283
  Beta virt. eigenvalues --    2.63520   2.63789   3.42557   3.42869   3.43543
  Beta virt. eigenvalues --    3.43921   3.51131   3.51727   3.51888   3.54482
  Beta virt. eigenvalues --    3.56019   3.56158   3.56961   3.57018   3.61624
  Beta virt. eigenvalues --    3.62143   3.62651   3.63581   3.63805   3.66287
  Beta virt. eigenvalues --    3.66480   3.69714   3.69758   3.73138   3.74820
  Beta virt. eigenvalues --    3.75110   3.75672   3.75700   3.75869   3.76447
  Beta virt. eigenvalues --    3.80360   3.80404   3.82805   3.83056   3.83133
  Beta virt. eigenvalues --    3.85923   3.86036   3.86112   3.90621   3.90864
  Beta virt. eigenvalues --    3.91058   3.92938   3.93362   3.93515   4.00848
  Beta virt. eigenvalues --    4.12625   4.12780   4.14294   4.16290   4.16540
  Beta virt. eigenvalues --    4.86627   4.86997   4.91296   4.91542   4.91879
  Beta virt. eigenvalues --    5.00093   5.43422   5.43681   5.45226   5.45379
  Beta virt. eigenvalues --    5.47829   5.54595   5.61152   5.65562   5.65759
  Beta virt. eigenvalues --    5.89706   5.92528   5.92613   5.93226   5.93587
  Beta virt. eigenvalues --    5.94612   6.54443   6.54648   6.54704   6.54867
  Beta virt. eigenvalues --    6.54900   6.55696   6.57996   6.58168   6.59822
  Beta virt. eigenvalues --    6.61534   6.63733   6.63948   6.72172   6.88144
  Beta virt. eigenvalues --    6.88304   6.92735   6.92781   6.92812   6.93142
  Beta virt. eigenvalues --    6.94824   6.94979   7.01460   7.01551   7.03646
  Beta virt. eigenvalues --    7.06996   7.07286   7.11294   7.13301   7.13559
  Beta virt. eigenvalues --    7.25916  18.32289  24.25004  24.30040  24.30246
  Beta virt. eigenvalues --   49.71157  49.73377  49.75251  49.75270  49.78256
  Beta virt. eigenvalues --   49.78492 109.04574 596.09511
          Condensed to atoms (all electrons):
               1          2          3          4          5          6
     1  Ti  20.881748   0.111010  -0.002685  -0.003332   0.113130  -0.003851
     2  O    0.111010   7.826087   0.265673   0.265709  -0.017284   0.004429
     3  H   -0.002685   0.265673   0.403916  -0.019544   0.004096  -0.002068
     4  H   -0.003332   0.265709  -0.019544   0.404694   0.000571   0.000422
     5  O    0.113130  -0.017284   0.004096   0.000571   7.818232   0.265331
     6  H   -0.003851   0.004429  -0.002068   0.000422   0.265331   0.404336
     7  H   -0.003770   0.000152   0.000469   0.000245   0.268735  -0.019684
     8  O    0.113401  -0.009843   0.000043   0.000459  -0.006747   0.000050
     9  H   -0.002907   0.000639   0.000566   0.000264  -0.000281   0.000339
    10  H   -0.002846   0.000697   0.000261   0.000579   0.000382   0.000602
    11  O    0.111010   0.010413   0.000007  -0.000046  -0.006217   0.000570
    12  O    0.113130  -0.006217   0.000444   0.000630   0.010191   0.000003
    13  O    0.113401  -0.014632   0.000418   0.004082  -0.016431   0.000274
    14  H   -0.002685   0.000007   0.000032  -0.000002   0.000444   0.000258
    15  H   -0.003332  -0.000046  -0.000002   0.000028   0.000630   0.000564
    16  H   -0.003851   0.000570   0.000258   0.000564   0.000003   0.000034
    17  H   -0.003770  -0.000298   0.000578   0.000324  -0.000001  -0.000002
    18  H   -0.002907   0.004391   0.000466  -0.002071   0.000379   0.000249
    19  H   -0.002846   0.000513   0.000249   0.000422   0.004108   0.000440
               7          8          9         10         11         12
     1  Ti  -0.003770   0.113401  -0.002907  -0.002846   0.111010   0.113130
     2  O    0.000152  -0.009843   0.000639   0.000697   0.010413  -0.006217
     3  H    0.000469   0.000043   0.000566   0.000261   0.000007   0.000444
     4  H    0.000245   0.000459   0.000264   0.000579  -0.000046   0.000630
     5  O    0.268735  -0.006747  -0.000281   0.000382  -0.006217   0.010191
     6  H   -0.019684   0.000050   0.000339   0.000602   0.000570   0.000003
     7  H    0.404319   0.000579   0.000560   0.000271  -0.000298  -0.000001
     8  O    0.000579   7.819957   0.268343   0.262338  -0.014632  -0.016431
     9  H    0.000560   0.268343   0.404147  -0.019784   0.004391   0.000379
    10  H    0.000271   0.262338  -0.019784   0.406048   0.000513   0.004108
    11  O   -0.000298  -0.014632   0.004391   0.000513   7.826087  -0.017284
    12  O   -0.000001  -0.016431   0.000379   0.004108  -0.017284   7.818232
    13  O    0.004437   0.010287  -0.000038  -0.000016  -0.009843  -0.006747
    14  H    0.000578   0.000418   0.000466   0.000249   0.265673   0.004096
    15  H    0.000324   0.004082  -0.002071   0.000422   0.265709   0.000571
    16  H   -0.000002   0.000274   0.000249   0.000440   0.004429   0.265331
    17  H    0.000033   0.004437   0.000470  -0.002081   0.000152   0.268735
    18  H    0.000470  -0.000038   0.000034  -0.000004   0.000639  -0.000281
    19  H   -0.002081  -0.000016  -0.000004   0.000029   0.000697   0.000382
              13         14         15         16         17         18
     1  Ti   0.113401  -0.002685  -0.003332  -0.003851  -0.003770  -0.002907
     2  O   -0.014632   0.000007  -0.000046   0.000570  -0.000298   0.004391
     3  H    0.000418   0.000032  -0.000002   0.000258   0.000578   0.000466
     4  H    0.004082  -0.000002   0.000028   0.000564   0.000324  -0.002071
     5  O   -0.016431   0.000444   0.000630   0.000003  -0.000001   0.000379
     6  H    0.000274   0.000258   0.000564   0.000034  -0.000002   0.000249
     7  H    0.004437   0.000578   0.000324  -0.000002   0.000033   0.000470
     8  O    0.010287   0.000418   0.004082   0.000274   0.004437  -0.000038
     9  H   -0.000038   0.000466  -0.002071   0.000249   0.000470   0.000034
    10  H   -0.000016   0.000249   0.000422   0.000440  -0.002081  -0.000004
    11  O   -0.009843   0.265673   0.265709   0.004429   0.000152   0.000639
    12  O   -0.006747   0.004096   0.000571   0.265331   0.268735  -0.000281
    13  O    7.819957   0.000043   0.000459   0.000050   0.000579   0.268343
    14  H    0.000043   0.403916  -0.019544  -0.002068   0.000469   0.000566
    15  H    0.000459  -0.019544   0.404694   0.000422   0.000245   0.000264
    16  H    0.000050  -0.002068   0.000422   0.404336  -0.019684   0.000339
    17  H    0.000579   0.000469   0.000245  -0.019684   0.404319   0.000560
    18  H    0.268343   0.000566   0.000264   0.000339   0.000560   0.404147
    19  H    0.262338   0.000261   0.000579   0.000602   0.000271  -0.019784
              19
     1  Ti  -0.002846
     2  O    0.000513
     3  H    0.000249
     4  H    0.000422
     5  O    0.004108
     6  H    0.000440
     7  H   -0.002081
     8  O   -0.000016
     9  H   -0.000004
    10  H    0.000029
    11  O    0.000697
    12  O    0.000382
    13  O    0.262338
    14  H    0.000261
    15  H    0.000579
    16  H    0.000602
    17  H    0.000271
    18  H   -0.019784
    19  H    0.406048
          Atomic-Atomic Spin Densities.
               1          2          3          4          5          6
     1  Ti   2.367643  -0.032110  -0.003513  -0.004013  -0.030747  -0.003904
     2  O   -0.032110  -0.005969   0.002809   0.002813   0.000322   0.000528
     3  H   -0.003513   0.002809   0.001612  -0.000506   0.000463  -0.000102
     4  H   -0.004013   0.002813  -0.000506   0.002076   0.000088  -0.000015
     5  O   -0.030747   0.000322   0.000463   0.000088  -0.006457   0.002984
     6  H   -0.003904   0.000528  -0.000102  -0.000015   0.002984   0.001831
     7  H   -0.003788   0.000104  -0.000018  -0.000015   0.002461  -0.000502
     8  O   -0.031719   0.002797   0.000355  -0.000145   0.003086   0.000447
     9  H   -0.003534  -0.000026   0.000007   0.000007   0.000300  -0.000085
    10  H   -0.003477   0.000379  -0.000081   0.000005  -0.000102  -0.000007
    11  O   -0.032110  -0.000612   0.000012   0.000017   0.002970  -0.000157
    12  O   -0.030747   0.002970  -0.000051   0.000430  -0.000622   0.000009
    13  O   -0.031719   0.000031   0.000100   0.000578   0.000159   0.000126
    14  H   -0.003513   0.000012   0.000001  -0.000012  -0.000051   0.000008
    15  H   -0.004013   0.000017  -0.000012   0.000000   0.000430   0.000004
    16  H   -0.003904  -0.000157   0.000008   0.000004   0.000009   0.000001
    17  H   -0.003788   0.000504  -0.000001  -0.000113   0.000004  -0.000011
    18  H   -0.003534   0.000584  -0.000015  -0.000109   0.000088  -0.000011
    19  H   -0.003477   0.000158  -0.000014  -0.000019   0.000472  -0.000021
               7          8          9         10         11         12
     1  Ti  -0.003788  -0.031719  -0.003534  -0.003477  -0.032110  -0.030747
     2  O    0.000104   0.002797  -0.000026   0.000379  -0.000612   0.002970
     3  H   -0.000018   0.000355   0.000007  -0.000081   0.000012  -0.000051
     4  H   -0.000015  -0.000145   0.000007   0.000005   0.000017   0.000430
     5  O    0.002461   0.003086   0.000300  -0.000102   0.002970  -0.000622
     6  H   -0.000502   0.000447  -0.000085  -0.000007  -0.000157   0.000009
     7  H    0.002086  -0.000121   0.000008   0.000006   0.000504   0.000004
     8  O   -0.000121  -0.005276   0.002286   0.002955   0.000031   0.000159
     9  H    0.000008   0.002286   0.001852  -0.000432   0.000584   0.000088
    10  H    0.000006   0.002955  -0.000432   0.001390   0.000158   0.000472
    11  O    0.000504   0.000031   0.000584   0.000158  -0.005969   0.000322
    12  O    0.000004   0.000159   0.000088   0.000472   0.000322  -0.006457
    13  O    0.000589  -0.000604   0.000007   0.000009   0.002797   0.003086
    14  H   -0.000001   0.000100  -0.000015  -0.000014   0.002809   0.000463
    15  H   -0.000113   0.000578  -0.000109  -0.000019   0.002813   0.000088
    16  H   -0.000011   0.000126  -0.000011  -0.000021   0.000528   0.002984
    17  H    0.000001   0.000589  -0.000013  -0.000117   0.000104   0.002461
    18  H   -0.000013   0.000007   0.000002  -0.000012  -0.000026   0.000300
    19  H   -0.000117   0.000009  -0.000012   0.000000   0.000379  -0.000102
              13         14         15         16         17         18
     1  Ti  -0.031719  -0.003513  -0.004013  -0.003904  -0.003788  -0.003534
     2  O    0.000031   0.000012   0.000017  -0.000157   0.000504   0.000584
     3  H    0.000100   0.000001  -0.000012   0.000008  -0.000001  -0.000015
     4  H    0.000578  -0.000012   0.000000   0.000004  -0.000113  -0.000109
     5  O    0.000159  -0.000051   0.000430   0.000009   0.000004   0.000088
     6  H    0.000126   0.000008   0.000004   0.000001  -0.000011  -0.000011
     7  H    0.000589  -0.000001  -0.000113  -0.000011   0.000001  -0.000013
     8  O   -0.000604   0.000100   0.000578   0.000126   0.000589   0.000007
     9  H    0.000007  -0.000015  -0.000109  -0.000011  -0.000013   0.000002
    10  H    0.000009  -0.000014  -0.000019  -0.000021  -0.000117  -0.000012
    11  O    0.002797   0.002809   0.002813   0.000528   0.000104  -0.000026
    12  O    0.003086   0.000463   0.000088   0.002984   0.002461   0.000300
    13  O   -0.005276   0.000355  -0.000145   0.000447  -0.000121   0.002286
    14  H    0.000355   0.001612  -0.000506  -0.000102  -0.000018   0.000007
    15  H   -0.000145  -0.000506   0.002076  -0.000015  -0.000015   0.000007
    16  H    0.000447  -0.000102  -0.000015   0.001831  -0.000502  -0.000085
    17  H   -0.000121  -0.000018  -0.000015  -0.000502   0.002086   0.000008
    18  H    0.002286   0.000007   0.000007  -0.000085   0.000008   0.001852
    19  H    0.002955  -0.000081   0.000005  -0.000007   0.000006  -0.000432
              19
     1  Ti  -0.003477
     2  O    0.000158
     3  H   -0.000014
     4  H   -0.000019
     5  O    0.000472
     6  H   -0.000021
     7  H   -0.000117
     8  O    0.000009
     9  H   -0.000012
    10  H    0.000000
    11  O    0.000379
    12  O   -0.000102
    13  O    0.002955
    14  H   -0.000081
    15  H    0.000005
    16  H   -0.000007
    17  H    0.000006
    18  H   -0.000432
    19  H    0.001390
 Mulliken charges and spin densities:
               1          2
     1  Ti   0.481954   2.134033
     2  O   -0.441968  -0.024844
     3  H    0.346824   0.001053
     4  H    0.346001   0.001072
     5  O   -0.439273  -0.024141
     6  H    0.347703   0.001121
     7  H    0.344662   0.001064
     8  O   -0.436959  -0.024341
     9  H    0.344239   0.000906
    10  H    0.347794   0.001093
    11  O   -0.441968  -0.024844
    12  O   -0.439273  -0.024141
    13  O   -0.436959  -0.024341
    14  H    0.346824   0.001053
    15  H    0.346001   0.001072
    16  H    0.347703   0.001121
    17  H    0.344662   0.001064
    18  H    0.344239   0.000906
    19  H    0.347794   0.001093
 Sum of Mulliken charges =   2.00000   2.00000
 Mulliken charges and spin densities with hydrogens summed into heavy atoms:
               1          2
     1  Ti   0.481954   2.134033
     2  O    0.250857  -0.022720
     5  O    0.253092  -0.021955
     8  O    0.255074  -0.022342
    11  O    0.250857  -0.022720
    12  O    0.253092  -0.021955
    13  O    0.255074  -0.022342
 Electronic spatial extent (au):  <R**2>=           1222.1945
 Charge=              2.0000 electrons
 Dipole moment (field-independent basis, Debye):
    X=              0.0000    Y=              0.0000    Z=              0.0000  Tot=              0.0000
 Quadrupole moment (field-independent basis, Debye-Ang):
   XX=            -14.4684   YY=            -14.8206   ZZ=            -14.4472
   XY=             -3.2402   XZ=              2.7572   YZ=              3.2943
 Traceless Quadrupole moment (field-independent basis, Debye-Ang):
   XX=              0.1103   YY=             -0.2418   ZZ=              0.1316
   XY=             -3.2402   XZ=              2.7572   YZ=              3.2943
 Octapole moment (field-independent basis, Debye-Ang**2):
  XXX=              0.0000  YYY=              0.0000  ZZZ=              0.0000  XYY=              0.0000
  XXY=              0.0000  XXZ=              0.0000  XZZ=              0.0000  YZZ=              0.0000
  YYZ=              0.0000  XYZ=              0.0000
 Hexadecapole moment (field-independent basis, Debye-Ang**3):
 XXXX=           -109.0864 YYYY=           -107.0503 ZZZZ=           -109.1330 XXXY=             16.8260
 XXXZ=             -5.5900 YYYX=             -7.4416 YYYZ=             -0.3706 ZZZX=            -12.3009
 ZZZY=            -13.2750 XXYY=           -111.4860 XXZZ=           -109.6143 YYZZ=           -111.7753
 XXYZ=             20.9758 YYXZ=             26.1713 ZZXY=            -21.2475
 N-N= 5.839512248740D+02 E-N=-4.239545350983D+03  KE= 1.304900521612D+03
 Symmetry AG   KE= 7.958459531675D+02
 Symmetry AU   KE= 5.090545684444D+02
                          Isotropic Fermi Contact Couplings
        Atom                 a.u.       MegaHertz       Gauss      10(-4) cm-1
     1  Ti(47)            -0.24360      30.74129      10.96926      10.25419
     2  O(17)             -0.01254       3.80036       1.35606       1.26766
     3  H(1)               0.00153       3.42859       1.22341       1.14366
     4  H(1)               0.00163       3.63181       1.29592       1.21144
     5  O(17)             -0.01250       3.78914       1.35206       1.26392
     6  H(1)               0.00160       3.57413       1.27534       1.19220
     7  H(1)               0.00155       3.45770       1.23379       1.15337
     8  O(17)             -0.01289       3.90704       1.39413       1.30325
     9  H(1)               0.00155       3.46356       1.23588       1.15532
    10  H(1)               0.00162       3.62000       1.29171       1.20750
    11  O(17)             -0.01254       3.80036       1.35606       1.26766
    12  O(17)             -0.01250       3.78914       1.35206       1.26392
    13  O(17)             -0.01289       3.90704       1.39413       1.30325
    14  H(1)               0.00153       3.42859       1.22341       1.14366
    15  H(1)               0.00163       3.63181       1.29592       1.21144
    16  H(1)               0.00160       3.57413       1.27534       1.19220
    17  H(1)               0.00155       3.45770       1.23379       1.15337
    18  H(1)               0.00155       3.46356       1.23588       1.15532
    19  H(1)               0.00162       3.62000       1.29171       1.20750
 --------------------------------------------------------
       Center         ----  Spin Dipole Couplings  ----
                      3XX-RR        3YY-RR        3ZZ-RR
 --------------------------------------------------------
     1   Atom        0.010969     -0.028747      0.017779
     2   Atom       -0.005001      0.014897     -0.009896
     3   Atom       -0.009879      0.020275     -0.010395
     4   Atom       -0.011171      0.021177     -0.010005
     5   Atom       -0.010926     -0.005329      0.016255
     6   Atom       -0.010486     -0.010551      0.021037
     7   Atom       -0.009867     -0.010810      0.020677
     8   Atom        0.016773     -0.010735     -0.006038
     9   Atom        0.019785     -0.009465     -0.010320
    10   Atom        0.021693     -0.010916     -0.010777
    11   Atom       -0.005001      0.014897     -0.009896
    12   Atom       -0.010926     -0.005329      0.016255
    13   Atom        0.016773     -0.010735     -0.006038
    14   Atom       -0.009879      0.020275     -0.010395
    15   Atom       -0.011171      0.021177     -0.010005
    16   Atom       -0.010486     -0.010551      0.021037
    17   Atom       -0.009867     -0.010810      0.020677
    18   Atom        0.019785     -0.009465     -0.010320
    19   Atom        0.021693     -0.010916     -0.010777
 --------------------------------------------------------
                        XY            XZ            YZ
 --------------------------------------------------------
     1   Atom       -0.311768      0.278621      0.316121
     2   Atom       -0.008036     -0.010689      0.005908
     3   Atom       -0.007583      0.001444     -0.006161
     4   Atom        0.004115      0.000939      0.007535
     5   Atom        0.009926      0.004774      0.006206
     6   Atom       -0.001181      0.006291     -0.006092
     7   Atom       -0.001276     -0.007600      0.005482
     8   Atom       -0.004262      0.007550     -0.008949
     9   Atom        0.008188      0.006657      0.001708
    10   Atom       -0.004972     -0.005328      0.000777
    11   Atom       -0.008036     -0.010689      0.005908
    12   Atom        0.009926      0.004774      0.006206
    13   Atom       -0.004262      0.007550     -0.008949
    14   Atom       -0.007583      0.001444     -0.006161
    15   Atom        0.004115      0.000939      0.007535
    16   Atom       -0.001181      0.006291     -0.006092
    17   Atom       -0.001276     -0.007600      0.005482
    18   Atom        0.008188      0.006657      0.001708
    19   Atom       -0.004972     -0.005328      0.000777
 --------------------------------------------------------


 ---------------------------------------------------------------------------------
              Anisotropic Spin Dipole Couplings in Principal Axis System
 ---------------------------------------------------------------------------------

       Atom             a.u.   MegaHertz   Gauss  10(-4) cm-1        Axes

              Baa    -0.6058    18.252     6.513     6.088  0.5611  0.6098 -0.5598
     1 Ti(47) Bbb     0.2920    -8.797    -3.139    -2.935  0.7819 -0.1685  0.6001
              Bcc     0.3138    -9.454    -3.373    -3.154 -0.2716  0.7744  0.5714
 
              Baa    -0.0184     1.333     0.476     0.445  0.6279  0.0135  0.7782
     2 O(17)  Bbb    -0.0023     0.164     0.059     0.055  0.6688  0.5019 -0.5484
              Bcc     0.0207    -1.497    -0.534    -0.499 -0.3979  0.8648  0.3062
 
              Baa    -0.0117    -6.233    -2.224    -2.079  0.9501  0.2590  0.1739
     3 H(1)   Bbb    -0.0116    -6.179    -2.205    -2.061 -0.2141  0.1361  0.9673
              Bcc     0.0233    12.412     4.429     4.140 -0.2268  0.9563 -0.1848
 
              Baa    -0.0117    -6.259    -2.233    -2.088  0.0697 -0.2309  0.9705
     4 H(1)   Bbb    -0.0117    -6.235    -2.225    -2.080  0.9902 -0.1021 -0.0954
              Bcc     0.0234    12.494     4.458     4.168  0.1211  0.9676  0.2215
 
              Baa    -0.0184     1.334     0.476     0.445  0.7977 -0.6030 -0.0019
     5 O(17)  Bbb    -0.0013     0.094     0.034     0.032  0.5501  0.7291 -0.4072
              Bcc     0.0197    -1.429    -0.510    -0.477  0.2469  0.3238  0.9133
 
              Baa    -0.0117    -6.243    -2.228    -2.083  0.8459  0.5295 -0.0640
     6 H(1)   Bbb    -0.0117    -6.232    -2.224    -2.079 -0.5000  0.8290  0.2505
              Bcc     0.0234    12.475     4.451     4.161  0.1857 -0.1799  0.9660
 
              Baa    -0.0117    -6.263    -2.235    -2.089 -0.1064  0.9760 -0.1900
     7 H(1)   Bbb    -0.0117    -6.217    -2.218    -2.074  0.9684  0.1451  0.2030
              Bcc     0.0234    12.480     4.453     4.163 -0.2257  0.1624  0.9606
 
              Baa    -0.0177     1.280     0.457     0.427 -0.0405  0.7796  0.6250
     8 O(17)  Bbb    -0.0029     0.207     0.074     0.069 -0.3984 -0.5863  0.7054
              Bcc     0.0206    -1.487    -0.531    -0.496  0.9163 -0.2204  0.3343
 
              Baa    -0.0117    -6.259    -2.233    -2.088 -0.2412  0.1485  0.9591
     9 H(1)   Bbb    -0.0116    -6.187    -2.208    -2.064 -0.2073  0.9575 -0.2004
              Bcc     0.0233    12.445     4.441     4.151  0.9481  0.2472  0.2001
 
              Baa    -0.0117    -6.224    -2.221    -2.076  0.1979  0.8917  0.4072
    10 H(1)   Bbb    -0.0116    -6.200    -2.212    -2.068  0.0799 -0.4287  0.8999
              Bcc     0.0233    12.424     4.433     4.144  0.9769 -0.1456 -0.1561
 
              Baa    -0.0184     1.333     0.476     0.445  0.6279  0.0135  0.7782
    11 O(17)  Bbb    -0.0023     0.164     0.059     0.055  0.6688  0.5019 -0.5484
              Bcc     0.0207    -1.497    -0.534    -0.499 -0.3979  0.8648  0.3062
 
              Baa    -0.0184     1.334     0.476     0.445  0.7977 -0.6030 -0.0019
    12 O(17)  Bbb    -0.0013     0.094     0.034     0.032  0.5501  0.7291 -0.4072
              Bcc     0.0197    -1.429    -0.510    -0.477  0.2469  0.3238  0.9133
 
              Baa    -0.0177     1.280     0.457     0.427 -0.0405  0.7796  0.6250
    13 O(17)  Bbb    -0.0029     0.207     0.074     0.069 -0.3984 -0.5863  0.7054
              Bcc     0.0206    -1.487    -0.531    -0.496  0.9163 -0.2204  0.3343
 
              Baa    -0.0117    -6.233    -2.224    -2.079  0.9501  0.2590  0.1739
    14 H(1)   Bbb    -0.0116    -6.179    -2.205    -2.061 -0.2141  0.1361  0.9673
              Bcc     0.0233    12.412     4.429     4.140 -0.2268  0.9563 -0.1848
 
              Baa    -0.0117    -6.259    -2.233    -2.088  0.0697 -0.2309  0.9705
    15 H(1)   Bbb    -0.0117    -6.235    -2.225    -2.080  0.9902 -0.1021 -0.0954
              Bcc     0.0234    12.494     4.458     4.168  0.1211  0.9676  0.2215
 
              Baa    -0.0117    -6.243    -2.228    -2.083  0.8459  0.5295 -0.0640
    16 H(1)   Bbb    -0.0117    -6.232    -2.224    -2.079 -0.5000  0.8290  0.2505
              Bcc     0.0234    12.475     4.451     4.161  0.1857 -0.1799  0.9660
 
              Baa    -0.0117    -6.263    -2.235    -2.089 -0.1064  0.9760 -0.1900
    17 H(1)   Bbb    -0.0117    -6.217    -2.218    -2.074  0.9684  0.1451  0.2030
              Bcc     0.0234    12.480     4.453     4.163 -0.2257  0.1624  0.9606
 
              Baa    -0.0117    -6.259    -2.233    -2.088 -0.2412  0.1485  0.9591
    18 H(1)   Bbb    -0.0116    -6.187    -2.208    -2.064 -0.2073  0.9575 -0.2004
              Bcc     0.0233    12.445     4.441     4.151  0.9481  0.2472  0.2001
 
              Baa    -0.0117    -6.224    -2.221    -2.076  0.1979  0.8917  0.4072
    19 H(1)   Bbb    -0.0116    -6.200    -2.212    -2.068  0.0799 -0.4287  0.8999
              Bcc     0.0233    12.424     4.433     4.144  0.9769 -0.1456 -0.1561
 

 ---------------------------------------------------------------------------------

 Calling FoFJK, ICntrl=      2127 FMM=F ISym2X=1 I1Cent= 0 IOpClX= 1 NMat=1 NMatS=1 NMatT=0.
 ***** Axes restored to original set *****
 -------------------------------------------------------------------
 Center     Atomic                   Forces (Hartrees/Bohr)
 Number     Number              X              Y              Z
 -------------------------------------------------------------------
      1       22           0.000000000    0.000000000    0.000000000
      2        8          -0.000057815    0.017625601    0.000146926
      3        1           0.008972891   -0.008559094    0.009933602
      4        1          -0.008769047   -0.009191705   -0.010157635
      5        8           0.000325921    0.001606229   -0.017378782
      6        1           0.009768338   -0.009466190    0.009116820
      7        1          -0.010237804    0.007801726    0.008196776
      8        8          -0.017862083   -0.000253935    0.000931200
      9        1           0.007807575    0.010397427    0.009011880
     10        1           0.010236261   -0.009815587   -0.009850738
     11        8           0.000057815   -0.017625601   -0.000146926
     12        8          -0.000325921   -0.001606229    0.017378782
     13        8           0.017862083    0.000253935   -0.000931200
     14        1          -0.008972891    0.008559094   -0.009933602
     15        1           0.008769047    0.009191705    0.010157635
     16        1          -0.009768338    0.009466190   -0.009116820
     17        1           0.010237804   -0.007801726   -0.008196776
     18        1          -0.007807575   -0.010397427   -0.009011880
     19        1          -0.010236261    0.009815587    0.009850738
 -------------------------------------------------------------------
 Cartesian Forces:  Max     0.017862083 RMS     0.009369312

 GradGradGradGradGradGradGradGradGradGradGradGradGradGradGradGradGradGrad
 Berny optimization.
 FormGI is forming the generalized inverse of G from B-inverse, IUseBI=4.
 Internal  Forces:  Max     0.017269593 RMS     0.005243895
 Search for a local minimum.
 Step number   1 out of a maximum of  114
 All quantities printed in internal units (Hartrees-Bohrs-Radians)
 Mixed Optimization -- RFO/linear search
 Second derivative matrix not updated -- first step.
 ITU=  0
     Eigenvalues ---    0.00230   0.00230   0.00230   0.00230   0.00230
     Eigenvalues ---    0.00230   0.00239   0.00239   0.00240   0.00240
     Eigenvalues ---    0.00249   0.00249   0.05112   0.05162   0.05185
     Eigenvalues ---    0.06716   0.06744   0.06818   0.08928   0.08928
     Eigenvalues ---    0.08952   0.08952   0.08954   0.08954   0.11482
     Eigenvalues ---    0.13098   0.13268   0.16000   0.16000   0.16000
     Eigenvalues ---    0.16000   0.16000   0.16000   0.16000   0.16000
     Eigenvalues ---    0.16000   0.16000   0.16000   0.16000   0.51023
     Eigenvalues ---    0.51023   0.51198   0.51198   0.51214   0.51214
     Eigenvalues ---    0.51304   0.51304   0.51333   0.51333   0.51444
     Eigenvalues ---    0.51444
 RFO step:  Lambda=-6.11988982D-03 EMin= 2.30000000D-03
 Linear search not attempted -- first point.
 Iteration  1 RMS(Cart)=  0.01077781 RMS(Int)=  0.00007796
 Iteration  2 RMS(Cart)=  0.00006205 RMS(Int)=  0.00000131
 Iteration  3 RMS(Cart)=  0.00000000 RMS(Int)=  0.00000131
 ClnCor:  largest displacement from symmetrization is 2.81D-08 for atom    15.
 Variable       Old X    -DE/DX   Delta X   Delta X   Delta X     New X
                                 (Linear)    (Quad)   (Total)
    R1        4.16048  -0.00014   0.00000  -0.00143  -0.00143   4.15905
    R2        4.15814   0.00006   0.00000   0.00067   0.00067   4.15882
    R3        4.15796  -0.00020   0.00000  -0.00206  -0.00206   4.15590
    R4        4.16048  -0.00014   0.00000  -0.00143  -0.00143   4.15905
    R5        4.15814   0.00006   0.00000   0.00067   0.00067   4.15882
    R6        4.15796  -0.00020   0.00000  -0.00206  -0.00206   4.15590
    R7        1.85272  -0.01585   0.00000  -0.03054  -0.03054   1.82218
    R8        1.85360  -0.01625   0.00000  -0.03135  -0.03135   1.82225
    R9        1.85375  -0.01634   0.00000  -0.03154  -0.03154   1.82221
   R10        1.85135  -0.01523   0.00000  -0.02925  -0.02925   1.82210
   R11        1.85244  -0.01574   0.00000  -0.03030  -0.03030   1.82213
   R12        1.85546  -0.01727   0.00000  -0.03345  -0.03345   1.82202
   R13        1.85272  -0.01585   0.00000  -0.03054  -0.03054   1.82218
   R14        1.85360  -0.01625   0.00000  -0.03135  -0.03135   1.82225
   R15        1.85375  -0.01634   0.00000  -0.03154  -0.03154   1.82221
   R16        1.85135  -0.01523   0.00000  -0.02925  -0.02925   1.82210
   R17        1.85244  -0.01574   0.00000  -0.03030  -0.03030   1.82213
   R18        1.85546  -0.01727   0.00000  -0.03345  -0.03345   1.82202
    A1        1.62247  -0.00004   0.00000  -0.00031  -0.00031   1.62216
    A2        1.53085  -0.00007   0.00000  -0.00055  -0.00055   1.53030
    A3        1.51912   0.00004   0.00000   0.00031   0.00031   1.51943
    A4        1.61074   0.00007   0.00000   0.00055   0.00055   1.61129
    A5        1.52830  -0.00001   0.00000  -0.00006  -0.00006   1.52824
    A6        1.51912   0.00004   0.00000   0.00031   0.00031   1.51943
    A7        1.61329   0.00001   0.00000   0.00006   0.00006   1.61335
    A8        1.61074   0.00007   0.00000   0.00055   0.00055   1.61129
    A9        1.61329   0.00001   0.00000   0.00006   0.00006   1.61335
   A10        1.62247  -0.00004   0.00000  -0.00031  -0.00031   1.62216
   A11        1.53085  -0.00007   0.00000  -0.00055  -0.00055   1.53030
   A12        1.52830  -0.00001   0.00000  -0.00006  -0.00006   1.52824
   A13        2.21938   0.00051   0.00000   0.00299   0.00299   2.22237
   A14        2.20703   0.00066   0.00000   0.00388   0.00388   2.21090
   A15        1.85238  -0.00117   0.00000  -0.00718  -0.00719   1.84520
   A16        2.21191   0.00064   0.00000   0.00368   0.00368   2.21558
   A17        2.21067   0.00059   0.00000   0.00336   0.00336   2.21403
   A18        1.85254  -0.00122   0.00000  -0.00752  -0.00752   1.84502
   A19        2.21092   0.00064   0.00000   0.00365   0.00364   2.21456
   A20        2.21429   0.00073   0.00000   0.00419   0.00419   2.21848
   A21        1.85402  -0.00136   0.00000  -0.00838  -0.00838   1.84564
   A22        2.21938   0.00051   0.00000   0.00299   0.00299   2.22237
   A23        2.20703   0.00066   0.00000   0.00388   0.00388   2.21090
   A24        1.85238  -0.00117   0.00000  -0.00718  -0.00719   1.84520
   A25        2.21191   0.00064   0.00000   0.00368   0.00368   2.21558
   A26        2.21067   0.00059   0.00000   0.00336   0.00336   2.21403
   A27        1.85254  -0.00122   0.00000  -0.00752  -0.00752   1.84502
   A28        2.21092   0.00064   0.00000   0.00365   0.00364   2.21456
   A29        2.21429   0.00073   0.00000   0.00419   0.00419   2.21848
   A30        1.85402  -0.00136   0.00000  -0.00838  -0.00838   1.84564
   A31        3.14159   0.00000   0.00000   0.00000   0.00000   3.14159
   A32        3.14159   0.00000   0.00000   0.00000   0.00000   3.14159
   A33        3.14159   0.00000   0.00000   0.00000   0.00000   3.14159
   A34        3.14159   0.00000   0.00000   0.00000   0.00000   3.14159
   A35        3.14159   0.00000   0.00000   0.00000   0.00000   3.14159
   A36        3.14159   0.00000   0.00000   0.00000   0.00000   3.14159
    D1        0.65432  -0.00007   0.00000  -0.00763  -0.00763   0.64669
    D2       -2.37252  -0.00003   0.00000  -0.00304  -0.00304  -2.37556
    D3       -0.87183  -0.00006   0.00000  -0.00755  -0.00755  -0.87938
    D4        2.38452  -0.00002   0.00000  -0.00296  -0.00296   2.38156
    D5       -2.48728  -0.00007   0.00000  -0.00763  -0.00763  -2.49490
    D6        0.76907  -0.00003   0.00000  -0.00304  -0.00304   0.76603
    D7        2.26977  -0.00006   0.00000  -0.00755  -0.00755   2.26222
    D8       -0.75707  -0.00002   0.00000  -0.00296  -0.00296  -0.76003
    D9        3.14159   0.00000   0.00000   0.00000   0.00000   3.14159
   D10       -0.11476  -0.00004   0.00000  -0.00459  -0.00459  -0.11934
   D11        0.11476   0.00004   0.00000   0.00459   0.00459   0.11934
   D12       -3.14159   0.00000   0.00000   0.00000   0.00000  -3.14159
   D13       -0.71685   0.00001   0.00000  -0.00320  -0.00320  -0.72005
   D14        2.26944  -0.00004   0.00000  -0.00839  -0.00839   2.26105
   D15        0.81171  -0.00007   0.00000  -0.00374  -0.00374   0.80797
   D16       -2.48519  -0.00011   0.00000  -0.00893  -0.00893  -2.49411
   D17        2.42475   0.00001   0.00000  -0.00320  -0.00320   2.42155
   D18       -0.87215  -0.00004   0.00000  -0.00839  -0.00839  -0.88054
   D19       -2.32988  -0.00007   0.00000  -0.00374  -0.00374  -2.33362
   D20        0.65641  -0.00011   0.00000  -0.00893  -0.00893   0.64748
   D21        3.14159   0.00000   0.00000   0.00000   0.00000   3.14159
   D22        0.15531   0.00004   0.00000   0.00519   0.00519   0.16049
   D23       -0.15531  -0.00004   0.00000  -0.00519  -0.00519  -0.16049
   D24        3.14159   0.00000   0.00000   0.00000   0.00000   3.14159
   D25        2.49022   0.00003   0.00000   0.00622   0.00622   2.49644
   D26       -0.76013  -0.00003   0.00000  -0.00159  -0.00159  -0.76173
   D27        0.86596   0.00007   0.00000   0.00650   0.00650   0.87246
   D28       -2.38439   0.00001   0.00000  -0.00131  -0.00131  -2.38570
   D29       -0.65137   0.00003   0.00000   0.00622   0.00622  -0.64516
   D30        2.38146  -0.00003   0.00000  -0.00159  -0.00159   2.37987
   D31       -2.27563   0.00007   0.00000   0.00650   0.00650  -2.26913
   D32        0.75720   0.00001   0.00000  -0.00131  -0.00131   0.75589
   D33        3.14159   0.00000   0.00000   0.00000   0.00000   3.14159
   D34        0.10876   0.00007   0.00000   0.00781   0.00781   0.11657
   D35       -0.10876  -0.00007   0.00000  -0.00781  -0.00781  -0.11657
   D36        3.14159   0.00000   0.00000   0.00000   0.00000   3.14159
   D37        2.48728   0.00007   0.00000   0.00763   0.00763   2.49490
   D38       -0.76907   0.00003   0.00000   0.00304   0.00304  -0.76603
   D39       -2.26977   0.00006   0.00000   0.00755   0.00755  -2.26222
   D40        0.75707   0.00002   0.00000   0.00296   0.00296   0.76003
   D41       -0.65432   0.00007   0.00000   0.00763   0.00763  -0.64669
   D42        2.37252   0.00003   0.00000   0.00304   0.00304   2.37556
   D43        0.87183   0.00006   0.00000   0.00755   0.00755   0.87938
   D44       -2.38452   0.00002   0.00000   0.00296   0.00296  -2.38156
   D45       -2.42475  -0.00001   0.00000   0.00320   0.00320  -2.42155
   D46        0.87215   0.00004   0.00000   0.00839   0.00839   0.88054
   D47        2.32988   0.00007   0.00000   0.00374   0.00374   2.33362
   D48       -0.65641   0.00011   0.00000   0.00893   0.00893  -0.64748
   D49        0.71685  -0.00001   0.00000   0.00320   0.00320   0.72005
   D50       -2.26944   0.00004   0.00000   0.00839   0.00839  -2.26105
   D51       -0.81171   0.00007   0.00000   0.00374   0.00374  -0.80797
   D52        2.48519   0.00011   0.00000   0.00893   0.00893   2.49411
   D53        0.65137  -0.00003   0.00000  -0.00622  -0.00622   0.64516
   D54       -2.38146   0.00003   0.00000   0.00159   0.00159  -2.37987
   D55        2.27563  -0.00007   0.00000  -0.00650  -0.00650   2.26913
   D56       -0.75720  -0.00001   0.00000   0.00131   0.00131  -0.75589
   D57       -2.49022  -0.00003   0.00000  -0.00622  -0.00622  -2.49644
   D58        0.76013   0.00003   0.00000   0.00159   0.00159   0.76173
   D59       -0.86596  -0.00007   0.00000  -0.00650  -0.00650  -0.87246
   D60        2.38439  -0.00001   0.00000   0.00131   0.00131   2.38570
         Item               Value     Threshold  Converged?
 Maximum Force            0.017270     0.000450     NO 
 RMS     Force            0.005244     0.000300     NO 
 Maximum Displacement     0.027162     0.001800     NO 
 RMS     Displacement     0.010793     0.001200     NO 
 Predicted change in Energy=-3.102551D-03
 GradGradGradGradGradGradGradGradGradGradGradGradGradGradGradGradGradGrad

[...]
    10  H   -0.000345   0.000347   0.000447   0.000447  -0.000296  -0.000014
    11  O   -0.043633   0.259398   0.250152   0.001036  -0.000876   0.001917
    12  O   -0.040219   0.008832   0.002263   0.251447   0.258953  -0.001964
    13  O    8.021244  -0.001675  -0.000129   0.006956   0.002057   0.259919
    14  H   -0.001675   0.405374  -0.010277  -0.000225   0.000682   0.000577
    15  H   -0.000129  -0.010277   0.406948   0.000449   0.000355   0.000342
    16  H    0.006956  -0.000225   0.000449   0.405273  -0.009422   0.000723
    17  H    0.002057   0.000682   0.000355  -0.009422   0.407195   0.000572
    18  H    0.259919   0.000577   0.000342   0.000723   0.000572   0.406458
    19  H    0.249981   0.000714   0.000579   0.000476   0.000331  -0.010298
              19
     1  Ti   0.000913
     2  O    0.002151
     3  H    0.000347
     4  H    0.000447
     5  O    0.001445
     6  H    0.000447
     7  H   -0.000296
     8  O   -0.000345
     9  H   -0.000014
    10  H    0.000070
    11  O    0.006481
    12  O    0.000113
    13  O    0.249981
    14  H    0.000714
    15  H    0.000579
    16  H    0.000476
    17  H    0.000331
    18  H   -0.010298
    19  H    0.405268
          Atomic-Atomic Spin Densities.
               1          2          3          4          5          6
     1  Ti   2.344940  -0.027413  -0.003766  -0.003878  -0.028422  -0.003977
     2  O   -0.027413  -0.019619   0.003550   0.005046   0.003712   0.000354
     3  H   -0.003766   0.003550   0.001702  -0.000684  -0.000106  -0.000056
     4  H   -0.003878   0.005046  -0.000684   0.001181  -0.000070  -0.000023
     5  O   -0.028422   0.003712  -0.000106  -0.000070  -0.017909   0.004788
     6  H   -0.003977   0.000354  -0.000056  -0.000023   0.004788   0.001634
     7  H   -0.003253   0.000117  -0.000029  -0.000027   0.003522  -0.000802
     8  O   -0.026776   0.003176   0.000352  -0.000058   0.003711  -0.000442
     9  H   -0.003588  -0.000058   0.000008   0.000016   0.000487  -0.000012
    10  H   -0.003995  -0.000305  -0.000008  -0.000019  -0.000177  -0.000026
    11  O   -0.027413  -0.001640   0.000018   0.000082   0.003841  -0.000205
    12  O   -0.028422   0.003841  -0.000062  -0.000424  -0.001652   0.000087
    13  O   -0.026776   0.003823   0.000025   0.000256   0.003868  -0.000044
    14  H   -0.003766   0.000018  -0.000001  -0.000017  -0.000062   0.000013
    15  H   -0.003878   0.000082  -0.000017  -0.000011  -0.000424  -0.000009
    16  H   -0.003977  -0.000205   0.000013  -0.000009   0.000087  -0.000010
    17  H   -0.003253   0.000527   0.000002  -0.000007  -0.000003  -0.000018
    18  H   -0.003588  -0.000024  -0.000024  -0.000052   0.000092  -0.000025
    19  H   -0.003995   0.000002  -0.000027  -0.000028   0.000249  -0.000026
               7          8          9         10         11         12
     1  Ti  -0.003253  -0.026776  -0.003588  -0.003995  -0.027413  -0.028422
     2  O    0.000117   0.003176  -0.000058  -0.000305  -0.001640   0.003841
     3  H   -0.000029   0.000352   0.000008  -0.000008   0.000018  -0.000062
     4  H   -0.000027  -0.000058   0.000016  -0.000019   0.000082  -0.000424
     5  O    0.003522   0.003711   0.000487  -0.000177   0.003841  -0.001652
     6  H   -0.000802  -0.000442  -0.000012  -0.000026  -0.000205   0.000087
     7  H    0.001423  -0.000090   0.000003   0.000016   0.000527  -0.000003
     8  O   -0.000090  -0.018175   0.003115   0.004936   0.003823   0.003868
     9  H    0.000003   0.003115   0.001624  -0.000728  -0.000024   0.000092
    10  H    0.000016   0.004936  -0.000728   0.001118   0.000002   0.000249
    11  O    0.000527   0.003823  -0.000024   0.000002  -0.019619   0.003712
    12  O   -0.000003   0.003868   0.000092   0.000249   0.003712  -0.017909
    13  O   -0.000253  -0.001584  -0.000007   0.000082   0.003176   0.003711
    14  H    0.000002   0.000025  -0.000024  -0.000027   0.003550  -0.000106
    15  H   -0.000007   0.000256  -0.000052  -0.000028   0.005046  -0.000070
    16  H   -0.000018  -0.000044  -0.000025  -0.000026   0.000354   0.004788
    17  H   -0.000002  -0.000253  -0.000034  -0.000050   0.000117   0.003522
    18  H   -0.000034  -0.000007  -0.000001  -0.000017  -0.000058   0.000487
    19  H   -0.000050   0.000082  -0.000017  -0.000010  -0.000305  -0.000177
              13         14         15         16         17         18
     1  Ti  -0.026776  -0.003766  -0.003878  -0.003977  -0.003253  -0.003588
     2  O    0.003823   0.000018   0.000082  -0.000205   0.000527  -0.000024
     3  H    0.000025  -0.000001  -0.000017   0.000013   0.000002  -0.000024
     4  H    0.000256  -0.000017  -0.000011  -0.000009  -0.000007  -0.000052
     5  O    0.003868  -0.000062  -0.000424   0.000087  -0.000003   0.000092
     6  H   -0.000044   0.000013  -0.000009  -0.000010  -0.000018  -0.000025
     7  H   -0.000253   0.000002  -0.000007  -0.000018  -0.000002  -0.000034
     8  O   -0.001584   0.000025   0.000256  -0.000044  -0.000253  -0.000007
     9  H   -0.000007  -0.000024  -0.000052  -0.000025  -0.000034  -0.000001
    10  H    0.000082  -0.000027  -0.000028  -0.000026  -0.000050  -0.000017
    11  O    0.003176   0.003550   0.005046   0.000354   0.000117  -0.000058
    12  O    0.003711  -0.000106  -0.000070   0.004788   0.003522   0.000487
    13  O   -0.018175   0.000352  -0.000058  -0.000442  -0.000090   0.003115
    14  H    0.000352   0.001702  -0.000684  -0.000056  -0.000029   0.000008
    15  H   -0.000058  -0.000684   0.001181  -0.000023  -0.000027   0.000016
    16  H   -0.000442  -0.000056  -0.000023   0.001634  -0.000802  -0.000012
    17  H   -0.000090  -0.000029  -0.000027  -0.000802   0.001423   0.000003
    18  H    0.003115   0.000008   0.000016  -0.000012   0.000003   0.001624
    19  H    0.004936  -0.000008  -0.000019  -0.000026   0.000016  -0.000728
              19
     1  Ti  -0.003995
     2  O    0.000002
     3  H   -0.000027
     4  H   -0.000028
     5  O    0.000249
     6  H   -0.000026
     7  H   -0.000050
     8  O    0.000082
     9  H   -0.000017
    10  H   -0.000010
    11  O   -0.000305
    12  O   -0.000177
    13  O    0.004936
    14  H   -0.000008
    15  H   -0.000019
    16  H   -0.000026
    17  H    0.000016
    18  H   -0.000728
    19  H    0.001118
 Mulliken charges and spin densities:
               1          2
     1  Ti   0.637471   2.134803
     2  O   -0.445868  -0.025014
     3  H    0.333534   0.000892
     4  H    0.339640   0.001273
     5  O   -0.446856  -0.024471
     6  H    0.340144   0.001202
     7  H    0.332418   0.001042
     8  O   -0.445516  -0.024085
     9  H    0.332579   0.000775
    10  H    0.341190   0.000986
    11  O   -0.445868  -0.025014
    12  O   -0.446856  -0.024471
    13  O   -0.445516  -0.024085
    14  H    0.333534   0.000892
    15  H    0.339640   0.001273
    16  H    0.340144   0.001202
    17  H    0.332418   0.001042
    18  H    0.332579   0.000775
    19  H    0.341190   0.000986
 Sum of Mulliken charges =   2.00000   2.00000
 Mulliken charges and spin densities with hydrogens summed into heavy atoms:
               1          2
     1  Ti   0.637471   2.134803
     2  O    0.227306  -0.022850
     5  O    0.225706  -0.022228
     8  O    0.228253  -0.022324
    11  O    0.227306  -0.022850
    12  O    0.225706  -0.022228
    13  O    0.228253  -0.022324
 Electronic spatial extent (au):  <R**2>=           1218.1460
 Charge=              2.0000 electrons
 Dipole moment (field-independent basis, Debye):
    X=              0.0000    Y=              0.0000    Z=              0.0000  Tot=              0.0000
 Quadrupole moment (field-independent basis, Debye-Ang):
   XX=            -14.8304   YY=            -15.0547   ZZ=            -14.8701
   XY=             -0.9196   XZ=              0.8015   YZ=              1.0040
 Traceless Quadrupole moment (field-independent basis, Debye-Ang):
   XX=              0.0880   YY=             -0.1363   ZZ=              0.0484
   XY=             -0.9196   XZ=              0.8015   YZ=              1.0040
 Octapole moment (field-independent basis, Debye-Ang**2):
  XXX=              0.0000  YYY=              0.0000  ZZZ=              0.0000  XYY=              0.0000
  XXY=              0.0000  XXZ=              0.0000  XZZ=              0.0000  YZZ=              0.0000
  YYZ=              0.0000  XYZ=              0.0000
 Hexadecapole moment (field-independent basis, Debye-Ang**3):
 XXXX=           -110.3443 YYYY=           -109.6837 ZZZZ=           -111.1293 XXXY=              9.4696
 XXXZ=             -5.2739 YYYX=             -7.2928 YYYZ=              4.7961 ZZZX=             -4.8973
 ZZZY=            -11.6846 XXYY=           -112.5418 XXZZ=           -110.8543 YYZZ=           -112.7158
 XXYZ=             10.2525 YYXZ=             12.2684 ZZXY=            -10.3121
 N-N= 5.854792901751D+02 E-N=-4.242674623241D+03  KE= 1.305267123331D+03
 Symmetry AG   KE= 7.960564022556D+02
 Symmetry AU   KE= 5.092107210749D+02
                          Isotropic Fermi Contact Couplings
        Atom                 a.u.       MegaHertz       Gauss      10(-4) cm-1
     1  Ti(47)            -0.24508      30.92822      11.03596      10.31654
     2  O(17)             -0.01060       3.21353       1.14667       1.07192
     3  H(1)               0.00097       2.16972       0.77421       0.72374
     4  H(1)               0.00147       3.28498       1.17216       1.09575
     5  O(17)             -0.01051       3.18664       1.13707       1.06295
     6  H(1)               0.00148       3.30743       1.18017       1.10324
     7  H(1)               0.00089       1.99037       0.71021       0.66392
     8  O(17)             -0.01134       3.43810       1.22680       1.14683
     9  H(1)               0.00089       1.97989       0.70647       0.66042
    10  H(1)               0.00142       3.17754       1.13383       1.05991
    11  O(17)             -0.01060       3.21353       1.14667       1.07192
    12  O(17)             -0.01051       3.18664       1.13707       1.06295
    13  O(17)             -0.01134       3.43810       1.22680       1.14683
    14  H(1)               0.00097       2.16972       0.77421       0.72374
    15  H(1)               0.00147       3.28498       1.17216       1.09575
    16  H(1)               0.00148       3.30743       1.18017       1.10324
    17  H(1)               0.00089       1.99037       0.71021       0.66392
    18  H(1)               0.00089       1.97989       0.70647       0.66042
    19  H(1)               0.00142       3.17754       1.13383       1.05991
 --------------------------------------------------------
       Center         ----  Spin Dipole Couplings  ----
                      3XX-RR        3YY-RR        3ZZ-RR
 --------------------------------------------------------
     1   Atom        0.014454     -0.056332      0.041878
     2   Atom        0.013497      0.012590     -0.026087
     3   Atom       -0.011558      0.020986     -0.009428
     4   Atom       -0.011941      0.020900     -0.008960
     5   Atom       -0.027282      0.014663      0.012619
     6   Atom       -0.009500     -0.011769      0.021268
     7   Atom       -0.008783     -0.011692      0.020475
     8   Atom        0.012111     -0.027153      0.015043
     9   Atom        0.019738     -0.008072     -0.011666
    10   Atom        0.021878     -0.010129     -0.011748
    11   Atom        0.013497      0.012590     -0.026087
    12   Atom       -0.027282      0.014663      0.012619
    13   Atom        0.012111     -0.027153      0.015043
    14   Atom       -0.011558      0.020986     -0.009428
    15   Atom       -0.011941      0.020900     -0.008960
    16   Atom       -0.009500     -0.011769      0.021268
    17   Atom       -0.008783     -0.011692      0.020475
    18   Atom        0.019738     -0.008072     -0.011666
    19   Atom        0.021878     -0.010129     -0.011748
 --------------------------------------------------------
                        XY            XZ            YZ
 --------------------------------------------------------
     1   Atom       -0.332200      0.315605      0.337107
     2   Atom       -0.010084      0.000154      0.003820
     3   Atom       -0.002426      0.000326     -0.008661
     4   Atom        0.000747      0.000007      0.009873
     5   Atom       -0.001019      0.001779      0.008828
     6   Atom       -0.000498      0.008985     -0.002532
     7   Atom        0.000258     -0.009826      0.000035
     8   Atom       -0.001599      0.009483     -0.001169
     9   Atom        0.010776      0.001820      0.000308
    10   Atom       -0.007557     -0.002078      0.000258
    11   Atom       -0.010084      0.000154      0.003820
    12   Atom       -0.001019      0.001779      0.008828
    13   Atom       -0.001599      0.009483     -0.001169
    14   Atom       -0.002426      0.000326     -0.008661
    15   Atom        0.000747      0.000007      0.009873
    16   Atom       -0.000498      0.008985     -0.002532
    17   Atom        0.000258     -0.009826      0.000035
    18   Atom        0.010776      0.001820      0.000308
    19   Atom       -0.007557     -0.002078      0.000258
 --------------------------------------------------------


 ---------------------------------------------------------------------------------
              Anisotropic Spin Dipole Couplings in Principal Axis System
 ---------------------------------------------------------------------------------

       Atom             a.u.   MegaHertz   Gauss  10(-4) cm-1        Axes

              Baa    -0.6591    19.857     7.086     6.624  0.5623  0.6175 -0.5501
     1 Ti(47) Bbb     0.3114    -9.382    -3.348    -3.130 -0.6420  0.7452  0.1804
              Bcc     0.3477   -10.475    -3.738    -3.494  0.5213  0.2517  0.8154
 
              Baa    -0.0265     1.917     0.684     0.640 -0.0303 -0.1050  0.9940
     2 O(17)  Bbb     0.0032    -0.233    -0.083    -0.078  0.6966  0.7109  0.0963
              Bcc     0.0233    -1.684    -0.601    -0.562  0.7168 -0.6954 -0.0516
 
              Baa    -0.0120    -6.418    -2.290    -2.141  0.7086  0.2273  0.6680
     3 H(1)   Bbb    -0.0114    -6.092    -2.174    -2.032  0.7022 -0.1343 -0.6992
              Bcc     0.0234    12.510     4.464     4.173 -0.0692  0.9645 -0.2548
 
              Baa    -0.0122    -6.483    -2.313    -2.162  0.7288 -0.2111  0.6514
     4 H(1)   Bbb    -0.0117    -6.260    -2.234    -2.088 -0.6844 -0.1967  0.7020
              Bcc     0.0239    12.743     4.547     4.251  0.0200  0.9575  0.2878
 
              Baa    -0.0274     1.983     0.708     0.662  0.9980  0.0351 -0.0521
     5 O(17)  Bbb     0.0049    -0.353    -0.126    -0.118  0.0622 -0.6650  0.7442
              Bcc     0.0225    -1.630    -0.582    -0.544  0.0085  0.7460  0.6659
 
              Baa    -0.0121    -6.469    -2.308    -2.158 -0.6466  0.7276  0.2292
     6 H(1)   Bbb    -0.0118    -6.276    -2.239    -2.093  0.7171  0.6822 -0.1428
              Bcc     0.0239    12.744     4.547     4.251  0.2602 -0.0720  0.9629
 
              Baa    -0.0120    -6.400    -2.284    -2.135  0.7299 -0.6466  0.2216
     7 H(1)   Bbb    -0.0115    -6.122    -2.184    -2.042  0.6183  0.7628  0.1893
              Bcc     0.0235    12.522     4.468     4.177 -0.2914 -0.0012  0.9566
 
              Baa    -0.0272     1.971     0.703     0.657  0.0359  0.9992  0.0196
     8 O(17)  Bbb     0.0040    -0.289    -0.103    -0.096  0.7582 -0.0144 -0.6519
              Bcc     0.0232    -1.682    -0.600    -0.561  0.6511 -0.0382  0.7581
 
              Baa    -0.0121    -6.433    -2.295    -2.146 -0.2630  0.6567  0.7068
     9 H(1)   Bbb    -0.0115    -6.115    -2.182    -2.040  0.1942 -0.6815  0.7055
              Bcc     0.0235    12.549     4.478     4.186  0.9450  0.3229  0.0517
 
              Baa    -0.0121    -6.430    -2.294    -2.145  0.1880  0.6392  0.7457
    10 H(1)   Bbb    -0.0116    -6.212    -2.217    -2.072  0.1251  0.7375 -0.6637
              Bcc     0.0237    12.642     4.511     4.217  0.9742 -0.2181 -0.0587
 
              Baa    -0.0265     1.917     0.684     0.640 -0.0303 -0.1050  0.9940
    11 O(17)  Bbb     0.0032    -0.233    -0.083    -0.078  0.6966  0.7109  0.0963
              Bcc     0.0233    -1.684    -0.601    -0.562  0.7168 -0.6954 -0.0516
 
              Baa    -0.0274     1.983     0.708     0.662  0.9980  0.0351 -0.0521
    12 O(17)  Bbb     0.0049    -0.353    -0.126    -0.118  0.0622 -0.6650  0.7442
              Bcc     0.0225    -1.630    -0.582    -0.544  0.0085  0.7460  0.6659
 
              Baa    -0.0272     1.971     0.703     0.657  0.0359  0.9992  0.0196
    13 O(17)  Bbb     0.0040    -0.289    -0.103    -0.096  0.7582 -0.0144 -0.6519
              Bcc     0.0232    -1.682    -0.600    -0.561  0.6511 -0.0382  0.7581
 
              Baa    -0.0120    -6.418    -2.290    -2.141  0.7086  0.2273  0.6680
    14 H(1)   Bbb    -0.0114    -6.092    -2.174    -2.032  0.7022 -0.1343 -0.6992
              Bcc     0.0234    12.510     4.464     4.173 -0.0692  0.9645 -0.2548
 
              Baa    -0.0122    -6.483    -2.313    -2.162  0.7288 -0.2111  0.6514
    15 H(1)   Bbb    -0.0117    -6.260    -2.234    -2.088 -0.6844 -0.1967  0.7020
              Bcc     0.0239    12.743     4.547     4.251  0.0200  0.9575  0.2878
 
              Baa    -0.0121    -6.469    -2.308    -2.158 -0.6466  0.7276  0.2292
    16 H(1)   Bbb    -0.0118    -6.276    -2.239    -2.093  0.7171  0.6822 -0.1428
              Bcc     0.0239    12.744     4.547     4.251  0.2602 -0.0720  0.9629
 
              Baa    -0.0120    -6.400    -2.284    -2.135  0.7299 -0.6466  0.2216
    17 H(1)   Bbb    -0.0115    -6.122    -2.184    -2.042  0.6183  0.7628  0.1893
              Bcc     0.0235    12.522     4.468     4.177 -0.2914 -0.0012  0.9566
 
              Baa    -0.0121    -6.433    -2.295    -2.146 -0.2630  0.6567  0.7068
    18 H(1)   Bbb    -0.0115    -6.115    -2.182    -2.040  0.1942 -0.6815  0.7055
              Bcc     0.0235    12.549     4.478     4.186  0.9450  0.3229  0.0517
 
              Baa    -0.0121    -6.430    -2.294    -2.145  0.1880  0.6392  0.7457
    19 H(1)   Bbb    -0.0116    -6.212    -2.217    -2.072  0.1251  0.7375 -0.6637
              Bcc     0.0237    12.642     4.511     4.217  0.9742 -0.2181 -0.0587
 

 ---------------------------------------------------------------------------------

 1\1\GINC-MN96\FOpt\UM062X\6-311++G(2d,2p)\H12O6Ti1(2+,3)\DARAM_A\29-Ju
 n-2015\0\\# opt 6-311++g(2d,2p) m062x output=wfnx scf=tight\\Ti[H2O]6 
 (2+)\\2,3\Ti,0.,0.,0.\O,-0.0867100172,2.1947581877,0.0598111644\H,-0.2
 740118888,2.7905517627,-0.6745279637\H,0.0784557342,2.7495228938,0.830
 8690172\O,0.0096474491,0.0323434527,-2.2006464314\H,-0.7441155375,0.22
 33275574,-2.7706800711\H,0.7742984857,-0.0692187589,-2.7787106603\O,-2
 .1985371448,-0.0856173062,-0.0386855034\H,-2.7378152655,-0.8637712069,
 -0.2208314789\H,-2.808309131,0.6255619565,0.1886000319\O,0.0867100172,
 -2.1947581877,-0.0598111644\O,-0.0096474491,-0.0323434527,2.2006464314
 \O,2.1985371448,0.0856173062,0.0386855034\H,0.2740118888,-2.7905517627
 ,0.6745279637\H,-0.0784557342,-2.7495228938,-0.8308690172\H,0.74411553
 75,-0.2233275574,2.7706800711\H,-0.7742984857,0.0692187589,2.778710660
 3\H,2.7378152655,0.8637712069,0.2208314789\H,2.808309131,-0.6255619565
 ,-0.1886000319\\Version=ES64L-G09RevD.01\State=3-AG\HF=-1307.6117882\S
 2=2.001786\S2-1=0.\S2A=2.000002\RMSD=5.078e-09\RMSF=4.054e-05\Dipole=0
 .,0.,0.\Quadrupole=0.0654138,-0.1013618,0.0359481,-0.6837341,0.5959053
 ,0.7464612\PG=CI [O(Ti1),X(H12O6)]\\@

 Writing a WFNX file to "Ti23.wfx"


 K N O W I N G  IS A BARRIER WHICH PREVENTS LEARNING

                     -- TEACHING OF THE BENE GESSERIT
 Job cpu time:       0 days  3 hours 23 minutes  4.1 seconds.
 File lengths (MBytes):  RWF=     95 Int=      0 D2E=      0 Chk=     12 Scr=      1
 Normal termination of Gaussian 09 at Mon Jun 29 13:41:40 2015.
