 Entering Gaussian System, Link 0=g09
 Input=V24.com
 Output=V24.log
 Initial command:
 /opt/SC/aplicaciones/g09-D.01/l1.exe "/tmpu/fercor_g/daram_a/Gau-27550.inp" -scrdir="/tmpu/fercor_g/daram_a/"
 Entering Link 1 = /opt/SC/aplicaciones/g09-D.01/l1.exe PID=     27551.
  
 Copyright (c) 1988,1990,1992,1993,1995,1998,2003,2009,2013,
            Gaussian, Inc.  All Rights Reserved.
  
 This is part of the Gaussian(R) 09 program.  It is based on
 the Gaussian(R) 03 system (copyright 2003, Gaussian, Inc.),
 the Gaussian(R) 98 system (copyright 1998, Gaussian, Inc.),
 the Gaussian(R) 94 system (copyright 1995, Gaussian, Inc.),
 the Gaussian 92(TM) system (copyright 1992, Gaussian, Inc.),
 the Gaussian 90(TM) system (copyright 1990, Gaussian, Inc.),
 the Gaussian 88(TM) system (copyright 1988, Gaussian, Inc.),
 the Gaussian 86(TM) system (copyright 1986, Carnegie Mellon
 University), and the Gaussian 82(TM) system (copyright 1983,
 Carnegie Mellon University). Gaussian is a federally registered
 trademark of Gaussian, Inc.
  
 This software contains proprietary and confidential information,
 including trade secrets, belonging to Gaussian, Inc.
  
 This software is provided under written license and may be
 used, copied, transmitted, or stored only in accord with that
 written license.
  
 The following legend is applicable only to US Government
 contracts under FAR:
  
                    RESTRICTED RIGHTS LEGEND
  
 Use, reproduction and disclosure by the US Government is
 subject to restrictions as set forth in subparagraphs (a)
 and (c) of the Commercial Computer Software - Restricted
 Rights clause in FAR 52.227-19.
  
 Gaussian, Inc.
 340 Quinnipiac St., Bldg. 40, Wallingford CT 06492
  
  
 ---------------------------------------------------------------
 Warning -- This program may not be used in any manner that
 competes with the business of Gaussian, Inc. or will provide
 assistance to any competitor of Gaussian, Inc.  The licensee
 of this program is prohibited from giving any competitor of
 Gaussian, Inc. access to this program.  By using this program,
 the user acknowledges that Gaussian, Inc. is engaged in the
 business of creating and licensing software in the field of
 computational chemistry and represents and warrants to the
 licensee that it is not a competitor of Gaussian, Inc. and that
 it will not use this program in any manner prohibited above.
 ---------------------------------------------------------------
  

 Cite this work as:
 Gaussian 09, Revision D.01,
 M. J. Frisch, G. W. Trucks, H. B. Schlegel, G. E. Scuseria, 
 M. A. Robb, J. R. Cheeseman, G. Scalmani, V. Barone, B. Mennucci, 
 G. A. Petersson, H. Nakatsuji, M. Caricato, X. Li, H. P. Hratchian, 
 A. F. Izmaylov, J. Bloino, G. Zheng, J. L. Sonnenberg, M. Hada, 
 M. Ehara, K. Toyota, R. Fukuda, J. Hasegawa, M. Ishida, T. Nakajima, 
 Y. Honda, O. Kitao, H. Nakai, T. Vreven, J. A. Montgomery, Jr., 
 J. E. Peralta, F. Ogliaro, M. Bearpark, J. J. Heyd, E. Brothers, 
 K. N. Kudin, V. N. Staroverov, T. Keith, R. Kobayashi, J. Normand, 
 K. Raghavachari, A. Rendell, J. C. Burant, S. S. Iyengar, J. Tomasi, 
 M. Cossi, N. Rega, J. M. Millam, M. Klene, J. E. Knox, J. B. Cross, 
 V. Bakken, C. Adamo, J. Jaramillo, R. Gomperts, R. E. Stratmann, 
 O. Yazyev, A. J. Austin, R. Cammi, C. Pomelli, J. W. Ochterski, 
 R. L. Martin, K. Morokuma, V. G. Zakrzewski, G. A. Voth, 
 P. Salvador, J. J. Dannenberg, S. Dapprich, A. D. Daniels, 
 O. Farkas, J. B. Foresman, J. V. Ortiz, J. Cioslowski, 
 and D. J. Fox, Gaussian, Inc., Wallingford CT, 2013.
 
 ******************************************
 Gaussian 09:  ES64L-G09RevD.01 24-Apr-2013
                29-Jun-2015 
 ******************************************
 %nprocshared=16
 Will use up to   16 processors via shared memory.
 %mem=32GB
 %chk=V24.chk
 -------------------------------------------------
 # opt 6-311++g(2d,2p) m062x output=wfnx scf=tight
 -------------------------------------------------
 1/14=-1,18=20,19=15,26=3,38=1/1,3;
 2/9=110,12=2,17=6,18=5,40=1/2;
 3/5=4,6=6,7=1212,11=2,16=1,25=1,30=1,71=1,74=-55/1,2,3;
 4//1;
 5/5=2,32=2,38=5/2;
 6/7=2,8=2,9=2,10=2,28=1/1;
 7//1,2,3,16;
 1/14=-1,18=20,19=15,26=3/3(2);
 2/9=110/2;
 99/6=200/99;
 2/9=110/2;
 3/5=4,6=6,7=1212,11=2,16=1,25=1,30=1,71=1,74=-55/1,2,3;
 4/5=5,16=3,69=1/1;
 5/5=2,32=2,38=5/2;
 7//1,2,3,16;
 1/14=-1,18=20,19=15,26=3/3(-5);
 2/9=110/2;
 6/7=2,8=2,9=2,10=2,19=2,28=1/1;
 99/6=200,9=1/99;
 ------------
 V[H2O]6 (2+)
 ------------
 Symbolic Z-matrix:
 Charge =  2 Multiplicity = 4
 V                     0.        0.        0. 
 O                    -2.15325   0.07898   0.17093 
 O                    -0.13428   2.14474  -0.20417 
 H                    -2.7526    0.52783  -0.43599 
 H                    -0.61215   2.74192   0.38223 
 H                     0.44202   2.69875  -0.74263 
 O                     2.15325  -0.07898  -0.17093 
 O                     0.13428  -2.14474   0.20417 
 O                     0.02529  -0.00263  -2.15846 
 O                    -0.02529   0.00263   2.15846 
 H                    -2.69992  -0.50751   0.70593 
 H                     2.7526   -0.52783   0.43599 
 H                     2.69992   0.50751  -0.70593 
 H                     0.61215  -2.74192  -0.38223 
 H                    -0.44202  -2.69875   0.74263 
 H                     0.50433  -0.62259  -2.71974 
 H                    -0.60229   0.4515   -2.73195 
 H                    -0.50433   0.62259   2.71974 
 H                     0.60229  -0.4515    2.73195 
 
 Add virtual bond connecting atoms O2         and V1         Dist= 4.08D+00.
 Add virtual bond connecting atoms O7         and V1         Dist= 4.08D+00.

 GradGradGradGradGradGradGradGradGradGradGradGradGradGradGradGradGradGrad
 Berny optimization.
 Initialization pass.
                           ----------------------------
                           !    Initial Parameters    !
                           ! (Angstroms and Degrees)  !
 --------------------------                            --------------------------
 ! Name  Definition              Value          Derivative Info.                !
 --------------------------------------------------------------------------------
 ! R1    R(1,2)                  2.1615         estimate D2E/DX2                !
 ! R2    R(1,3)                  2.1586         estimate D2E/DX2                !
 ! R3    R(1,7)                  2.1615         estimate D2E/DX2                !
 ! R4    R(1,8)                  2.1586         estimate D2E/DX2                !
 ! R5    R(1,9)                  2.1586         estimate D2E/DX2                !
 ! R6    R(1,10)                 2.1586         estimate D2E/DX2                !
 ! R7    R(2,4)                  0.9639         estimate D2E/DX2                !
 ! R8    R(2,11)                 0.9639         estimate D2E/DX2                !
 ! R9    R(3,5)                  0.9638         estimate D2E/DX2                !
 ! R10   R(3,6)                  0.9638         estimate D2E/DX2                !
 ! R11   R(7,12)                 0.9639         estimate D2E/DX2                !
 ! R12   R(7,13)                 0.9639         estimate D2E/DX2                !
 ! R13   R(8,14)                 0.9638         estimate D2E/DX2                !
 ! R14   R(8,15)                 0.9638         estimate D2E/DX2                !
 ! R15   R(9,16)                 0.9638         estimate D2E/DX2                !
 ! R16   R(9,17)                 0.9638         estimate D2E/DX2                !
 ! R17   R(10,18)                0.9638         estimate D2E/DX2                !
 ! R18   R(10,19)                0.9638         estimate D2E/DX2                !
 ! A1    A(2,1,3)               84.7907         estimate D2E/DX2                !
 ! A2    A(2,1,8)               95.2093         estimate D2E/DX2                !
 ! A3    A(2,1,9)               95.2093         estimate D2E/DX2                !
 ! A4    A(2,1,10)              84.7907         estimate D2E/DX2                !
 ! A5    A(3,1,7)               95.2093         estimate D2E/DX2                !
 ! A6    A(3,1,9)               84.6847         estimate D2E/DX2                !
 ! A7    A(3,1,10)              95.3153         estimate D2E/DX2                !
 ! A8    A(7,1,8)               84.7907         estimate D2E/DX2                !
 ! A9    A(7,1,9)               84.7907         estimate D2E/DX2                !
 ! A10   A(7,1,10)              95.2093         estimate D2E/DX2                !
 ! A11   A(8,1,9)               95.3153         estimate D2E/DX2                !
 ! A12   A(8,1,10)              84.6847         estimate D2E/DX2                !
 ! A13   A(1,2,4)              125.9214         estimate D2E/DX2                !
 ! A14   A(1,2,11)             125.9214         estimate D2E/DX2                !
 ! A15   A(4,2,11)             106.2704         estimate D2E/DX2                !
 ! A16   A(1,3,5)              126.0818         estimate D2E/DX2                !
 ! A17   A(1,3,6)              125.927          estimate D2E/DX2                !
 ! A18   A(5,3,6)              106.2733         estimate D2E/DX2                !
 ! A19   A(1,7,12)             125.9214         estimate D2E/DX2                !
 ! A20   A(1,7,13)             125.9214         estimate D2E/DX2                !
 ! A21   A(12,7,13)            106.2704         estimate D2E/DX2                !
 ! A22   A(1,8,14)             126.0818         estimate D2E/DX2                !
 ! A23   A(1,8,15)             125.927          estimate D2E/DX2                !
 ! A24   A(14,8,15)            106.2733         estimate D2E/DX2                !
 ! A25   A(1,9,16)             126.0818         estimate D2E/DX2                !
 ! A26   A(1,9,17)             125.927          estimate D2E/DX2                !
 ! A27   A(16,9,17)            106.2733         estimate D2E/DX2                !
 ! A28   A(1,10,18)            126.0818         estimate D2E/DX2                !
 ! A29   A(1,10,19)            125.927          estimate D2E/DX2                !
 ! A30   A(18,10,19)           106.2733         estimate D2E/DX2                !
 ! A31   L(2,1,7,3,-1)         180.0            estimate D2E/DX2                !
 ! A32   L(3,1,8,2,-1)         180.0            estimate D2E/DX2                !
 ! A33   L(9,1,10,2,-1)        180.0            estimate D2E/DX2                !
 ! A34   L(2,1,7,3,-2)         180.0            estimate D2E/DX2                !
 ! A35   L(3,1,8,2,-2)         180.0            estimate D2E/DX2                !
 ! A36   L(9,1,10,2,-2)        180.0            estimate D2E/DX2                !
 ! D1    D(3,1,2,4)             50.9895         estimate D2E/DX2                !
 ! D2    D(3,1,2,11)          -146.8277         estimate D2E/DX2                !
 ! D3    D(8,1,2,4)           -129.0105         estimate D2E/DX2                !
 ! D4    D(8,1,2,11)            33.1723         estimate D2E/DX2                !
 ! D5    D(9,1,2,4)            -33.1723         estimate D2E/DX2                !
 ! D6    D(9,1,2,11)           129.0105         estimate D2E/DX2                !
 ! D7    D(10,1,2,4)           146.8277         estimate D2E/DX2                !
 ! D8    D(10,1,2,11)          -50.9895         estimate D2E/DX2                !
 ! D9    D(4,2,7,12)           180.0            estimate D2E/DX2                !
 ! D10   D(4,2,7,13)            17.8172         estimate D2E/DX2                !
 ! D11   D(11,2,7,12)          -17.8172         estimate D2E/DX2                !
 ! D12   D(11,2,7,13)          180.0            estimate D2E/DX2                !
 ! D13   D(2,1,3,5)             50.5643         estimate D2E/DX2                !
 ! D14   D(2,1,3,6)           -146.4522         estimate D2E/DX2                !
 ! D15   D(7,1,3,5)           -129.4357         estimate D2E/DX2                !
 ! D16   D(7,1,3,6)             33.5478         estimate D2E/DX2                !
 ! D17   D(9,1,3,5)            146.3062         estimate D2E/DX2                !
 ! D18   D(9,1,3,6)            -50.7103         estimate D2E/DX2                !
 ! D19   D(10,1,3,5)           -33.6938         estimate D2E/DX2                !
 ! D20   D(10,1,3,6)           129.2897         estimate D2E/DX2                !
 ! D21   D(5,3,8,14)           180.0            estimate D2E/DX2                !
 ! D22   D(5,3,8,15)            17.0165         estimate D2E/DX2                !
 ! D23   D(6,3,8,14)           -17.0165         estimate D2E/DX2                !
 ! D24   D(6,3,8,15)           180.0            estimate D2E/DX2                !
 ! D25   D(3,1,7,12)           129.0105         estimate D2E/DX2                !
 ! D26   D(3,1,7,13)           -33.1723         estimate D2E/DX2                !
 ! D27   D(8,1,7,12)           -50.9895         estimate D2E/DX2                !
 ! D28   D(8,1,7,13)           146.8277         estimate D2E/DX2                !
 ! D29   D(9,1,7,12)          -146.8277         estimate D2E/DX2                !
 ! D30   D(9,1,7,13)            50.9895         estimate D2E/DX2                !
 ! D31   D(10,1,7,12)           33.1723         estimate D2E/DX2                !
 ! D32   D(10,1,7,13)         -129.0105         estimate D2E/DX2                !
 ! D33   D(2,1,8,14)           129.4357         estimate D2E/DX2                !
 ! D34   D(2,1,8,15)           -33.5478         estimate D2E/DX2                !
 ! D35   D(7,1,8,14)           -50.5643         estimate D2E/DX2                !
 ! D36   D(7,1,8,15)           146.4522         estimate D2E/DX2                !
 ! D37   D(9,1,8,14)            33.6938         estimate D2E/DX2                !
 ! D38   D(9,1,8,15)          -129.2897         estimate D2E/DX2                !
 ! D39   D(10,1,8,14)         -146.3062         estimate D2E/DX2                !
 ! D40   D(10,1,8,15)           50.7103         estimate D2E/DX2                !
 ! D41   D(2,1,9,16)          -129.4357         estimate D2E/DX2                !
 ! D42   D(2,1,9,17)            33.5478         estimate D2E/DX2                !
 ! D43   D(3,1,9,16)           146.3062         estimate D2E/DX2                !
 ! D44   D(3,1,9,17)           -50.7103         estimate D2E/DX2                !
 ! D45   D(7,1,9,16)            50.5643         estimate D2E/DX2                !
 ! D46   D(7,1,9,17)          -146.4522         estimate D2E/DX2                !
 ! D47   D(8,1,9,16)           -33.6938         estimate D2E/DX2                !
 ! D48   D(8,1,9,17)           129.2897         estimate D2E/DX2                !
 ! D49   D(16,9,10,18)         180.0            estimate D2E/DX2                !
 ! D50   D(16,9,10,19)          17.0165         estimate D2E/DX2                !
 ! D51   D(17,9,10,18)         -17.0165         estimate D2E/DX2                !
 ! D52   D(17,9,10,19)         180.0            estimate D2E/DX2                !
 ! D53   D(2,1,10,18)          -50.5643         estimate D2E/DX2                !
 ! D54   D(2,1,10,19)          146.4522         estimate D2E/DX2                !
 ! D55   D(3,1,10,18)           33.6938         estimate D2E/DX2                !
 ! D56   D(3,1,10,19)         -129.2897         estimate D2E/DX2                !
 ! D57   D(7,1,10,18)          129.4357         estimate D2E/DX2                !
 ! D58   D(7,1,10,19)          -33.5478         estimate D2E/DX2                !
 ! D59   D(8,1,10,18)         -146.3062         estimate D2E/DX2                !
 ! D60   D(8,1,10,19)           50.7103         estimate D2E/DX2                !
 --------------------------------------------------------------------------------
 Trust Radius=3.00D-01 FncErr=1.00D-07 GrdErr=1.00D-06
 Number of steps in this run=    114 maximum allowed number of steps=    114.
 GradGradGradGradGradGradGradGradGradGradGradGradGradGradGradGradGradGrad

                          Input orientation:                          
 ---------------------------------------------------------------------
 Center     Atomic      Atomic             Coordinates (Angstroms)
 Number     Number       Type             X           Y           Z
 ---------------------------------------------------------------------
      1         23           0        0.000000    0.000000    0.000000
      2          8           0       -2.153246    0.078981    0.170934
      3          8           0       -0.134276    2.144737   -0.204171
      4          1           0       -2.752598    0.527827   -0.435992
      5          1           0       -0.612154    2.741918    0.382228
      6          1           0        0.442016    2.698752   -0.742628
      7          8           0        2.153246   -0.078981   -0.170934
      8          8           0        0.134276   -2.144737    0.204171
      9          8           0        0.025293   -0.002632   -2.158464
     10          8           0       -0.025293    0.002632    2.158464
     11          1           0       -2.699924   -0.507506    0.705928
     12          1           0        2.752598   -0.527827    0.435992
     13          1           0        2.699924    0.507506   -0.705928
     14          1           0        0.612154   -2.741918   -0.382228
     15          1           0       -0.442016   -2.698752    0.742628
     16          1           0        0.504330   -0.622592   -2.719738
     17          1           0       -0.602290    0.451504   -2.731946
     18          1           0       -0.504330    0.622592    2.719738
     19          1           0        0.602290   -0.451504    2.731946
 ---------------------------------------------------------------------
                    Distance matrix (angstroms):
                    1          2          3          4          5
     1  V    0.000000
     2  O    2.161463   0.000000
     3  O    2.158614   2.912780   0.000000
     4  H    2.836457   0.963870   3.086058   0.000000
     5  H    2.835303   3.083965   0.963772   3.186407   0.000000
     6  H    2.833750   3.799102   0.963837   3.874597   1.542219
     7  O    2.161463   4.322927   3.190421   4.950331   3.988846
     8  O    2.158614   3.190421   4.317227   3.985781   4.946540
     9  O    2.158614   3.190421   2.907906   3.311340   3.793944
    10  O    2.158614   2.912780   3.191008   3.800688   3.317093
    11  H    2.836457   0.963870   3.800688   1.542294   3.875864
    12  H    2.836457   4.950331   3.985781   5.672914   4.692087
    13  H    2.836457   4.950331   3.311340   5.459238   4.140838
    14  H    2.835303   3.988846   4.946540   4.692087   5.670606
    15  H    2.833750   3.312242   4.944747   4.139897   5.455247
    16  H    2.835303   3.988846   3.793944   4.140838   4.710484
    17  H    2.833750   3.312242   3.078266   3.146595   3.865770
    18  H    2.835303   3.083965   3.317093   3.875864   3.157074
    19  H    2.833750   3.799102   3.987954   4.717011   4.146563
                    6          7          8          9         10
     6  H    0.000000
     7  O    3.312242   0.000000
     8  O    4.944747   2.912780   0.000000
     9  O    3.078266   2.912780   3.191008   0.000000
    10  O    3.987954   3.190421   2.907906   4.317227   0.000000
    11  H    4.717011   4.950331   3.311340   3.985781   3.086058
    12  H    4.139897   0.963870   3.086058   3.800688   3.311340
    13  H    3.146595   0.963870   3.800688   3.086058   3.985781
    14  H    5.455247   3.083965   0.963772   3.317093   3.793944
    15  H    5.667499   3.799102   0.963837   3.987954   3.078266
    16  H    3.865770   3.083965   3.317093   0.963772   4.946540
    17  H    3.177748   3.799102   3.987954   0.963837   4.944747
    18  H    4.146563   3.988846   3.793944   4.946540   0.963772
    19  H    4.692810   3.312242   3.078266   4.944747   0.963837
                   11         12         13         14         15
    11  H    0.000000
    12  H    5.459238   0.000000
    13  H    5.672914   1.542294   0.000000
    14  H    4.140838   3.186407   3.875864   0.000000
    15  H    3.146595   3.874597   4.717011   1.542219   0.000000
    16  H    4.692087   3.875864   3.186407   3.157074   4.146563
    17  H    4.139897   4.717011   3.874597   4.146563   4.692810
    18  H    3.186407   4.140838   4.692087   4.710484   3.865770
    19  H    3.874597   3.146595   4.139897   3.865770   3.177748
                   16         17         18         19
    16  H    0.000000
    17  H    1.542219   0.000000
    18  H    5.670606   5.455247   0.000000
    19  H    5.455247   5.667499   1.542219   0.000000
 Stoichiometry    H12O6V(2+,4)
 Framework group  CI[O(V),X(H12O6)]
 Deg. of freedom    24
 Full point group                 CI      NOp   2
 Largest Abelian subgroup         CI      NOp   2
 Largest concise Abelian subgroup CI      NOp   2
                         Standard orientation:                         
 ---------------------------------------------------------------------
 Center     Atomic      Atomic             Coordinates (Angstroms)
 Number     Number       Type             X           Y           Z
 ---------------------------------------------------------------------
      1         23           0        0.000000    0.000000    0.000000
      2          8           0       -2.153246    0.078981    0.170934
      3          8           0       -0.134276    2.144737   -0.204171
      4          1           0       -2.752598    0.527827   -0.435992
      5          1           0       -0.612154    2.741918    0.382228
      6          1           0        0.442016    2.698752   -0.742628
      7          8           0        2.153246   -0.078981   -0.170934
      8          8           0        0.134276   -2.144737    0.204171
      9          8           0        0.025293   -0.002632   -2.158464
     10          8           0       -0.025293    0.002632    2.158464
     11          1           0       -2.699924   -0.507506    0.705928
     12          1           0        2.752598   -0.527827    0.435992
     13          1           0        2.699924    0.507506   -0.705928
     14          1           0        0.612154   -2.741918   -0.382228
     15          1           0       -0.442016   -2.698752    0.742628
     16          1           0        0.504330   -0.622592   -2.719738
     17          1           0       -0.602290    0.451504   -2.731946
     18          1           0       -0.504330    0.622592    2.719738
     19          1           0        0.602290   -0.451504    2.731946
 ---------------------------------------------------------------------
 Rotational constants (GHZ):      1.4552427      1.4545089      1.2799699
 Standard basis: 6-311++G(2d,2p) (5D, 7F)
 There are   181 symmetry adapted cartesian basis functions of AG  symmetry.
 There are   188 symmetry adapted cartesian basis functions of AU  symmetry.
 There are   171 symmetry adapted basis functions of AG  symmetry.
 There are   176 symmetry adapted basis functions of AU  symmetry.
   347 basis functions,   500 primitive gaussians,   369 cartesian basis functions
    42 alpha electrons       39 beta electrons
       nuclear repulsion energy       609.6829822920 Hartrees.
 NAtoms=   19 NActive=   19 NUniq=   10 SFac= 3.61D+00 NAtFMM=   60 NAOKFM=F Big=F
 Integral buffers will be    131072 words long.
 Raffenetti 2 integral format.
 Two-electron integral symmetry is turned on.
 One-electron integrals computed using PRISM.
 NBasis=   347 RedAO= T EigKep=  1.46D-04  NBF=   171   176
 NBsUse=   347 1.00D-06 EigRej= -1.00D+00 NBFU=   171   176
 ExpMin= 1.07D-02 ExpMax= 2.27D+05 ExpMxC= 7.72D+03 IAcc=3 IRadAn=         5 AccDes= 0.00D+00
 Harris functional with IExCor= 1009 and IRadAn=       5 diagonalized for initial guess.
 HarFok:  IExCor= 1009 AccDes= 0.00D+00 IRadAn=         5 IDoV= 1 UseB2=F ITyADJ=14
 ICtDFT=  3500011 ScaDFX=  1.000000  1.000000  1.000000  1.000000
 FoFCou: FMM=F IPFlag=           0 FMFlag=      100000 FMFlg1=           0
         NFxFlg=           0 DoJE=T BraDBF=F KetDBF=T FulRan=T
         wScrn=  0.000000 ICntrl=     500 IOpCl=  0 I1Cent=   200000004 NGrid=           0
         NMat0=    1 NMatS0=      1 NMatT0=    0 NMatD0=    1 NMtDS0=    0 NMtDT0=    0
 Petite list used in FoFCou.
 Initial guess orbital symmetries:
 Alpha Orbitals:
       Occupied  (AG) (AG) (AU) (AG) (AU) (AG) (AU) (AG) (AU) (AU)
                 (AU) (AG) (AU) (AU) (AU) (AG) (AU) (AU) (AG) (AG)
                 (AU) (AG) (AG) (AU) (AU) (AU) (AG) (AG) (AG) (AG)
                 (AU) (AU) (AU) (AG) (AU) (AU) (AU) (AG) (AG) (AG)
                 (AG) (AG)
       Virtual   (AG) (AG) (AG) (AU) (AU) (AU) (AG) (AG) (AG) (AG)
                 (AU) (AU) (AG) (AU) (AG) (AG) (AU) (AU) (AU) (AU)
                 (AG) (AG) (AG) (AU) (AU) (AU) (AG) (AG) (AG) (AU)
                 (AU) (AU) (AG) (AG) (AG) (AG) (AU) (AU) (AU) (AG)
                 (AG) (AG) (AG) (AG) (AU) (AU) (AU) (AU) (AU) (AG)
                 (AG) (AU) (AG) (AG) (AU) (AU) (AU) (AG) (AG) (AU)
                 (AU) (AG) (AG) (AU) (AG) (AG) (AU) (AU) (AG) (AU)
                 (AG) (AG) (AG) (AU) (AU) (AG) (AG) (AU) (AU) (AU)
                 (AG) (AG) (AU) (AU) (AU) (AG) (AG) (AU) (AU) (AG)
                 (AU) (AU) (AG) (AG) (AG) (AG) (AG) (AU) (AU) (AU)
                 (AU) (AG) (AG) (AG) (AU) (AU) (AG) (AU) (AG) (AG)
                 (AU) (AU) (AG) (AG) (AG) (AU) (AU) (AU) (AG) (AG)
                 (AG) (AG) (AU) (AU) (AU) (AU) (AU) (AG) (AG) (AU)
                 (AU) (AG) (AG) (AU) (AU) (AG) (AG) (AG) (AG) (AU)
                 (AU) (AU) (AU) (AU) (AU) (AG) (AG) (AG) (AU) (AG)
                 (AU) (AG) (AG) (AU) (AU) (AG) (AG) (AU) (AG) (AU)
                 (AU) (AU) (AU) (AG) (AG) (AG) (AU) (AU) (AU) (AG)
                 (AU) (AG) (AG) (AG) (AG) (AU) (AU) (AU) (AU) (AU)
                 (AG) (AG) (AU) (AG) (AU) (AU) (AG) (AG) (AG) (AG)
                 (AG) (AU) (AU) (AU) (AU) (AU) (AG) (AU) (AG) (AG)
                 (AG) (AU) (AG) (AG) (AU) (AU) (AU) (AU) (AG) (AG)
                 (AU) (AG) (AG) (AG) (AU) (AU) (AU) (AU) (AU) (AG)
                 (AU) (AG) (AG) (AU) (AG) (AG) (AU) (AU) (AG) (AG)
                 (AG) (AU) (AG) (AG) (AU) (AU) (AU) (AU) (AU) (AU)
                 (AG) (AG) (AU) (AU) (AG) (AG) (AG) (AU) (AU) (AU)
                 (AG) (AG) (AG) (AU) (AG) (AU) (AU) (AG) (AG) (AU)
                 (AU) (AU) (AU) (AG) (AU) (AG) (AG) (AU) (AU) (AG)
                 (AU) (AG) (AG) (AU) (AU) (AG) (AG) (AG) (AU) (AU)
                 (AU) (AG) (AG) (AG) (AU) (AU) (AU) (AG) (AG) (AU)
                 (AU) (AU) (AG) (AG) (AU) (AU) (AU) (AU) (AG) (AG)
                 (AG) (AU) (AU) (AG) (AG)
 Beta  Orbitals:
       Occupied  (AG) (AG) (AU) (AG) (AU) (AG) (AU) (AG) (AU) (AU)
                 (AU) (AG) (AU) (AU) (AU) (AG) (AU) (AU) (AG) (AG)
                 (AU) (AG) (AG) (AU) (AU) (AU) (AG) (AG) (AG) (AG)
                 (AU) (AU) (AU) (AG) (AU) (AU) (AU) (AG) (AG)
       Virtual   (AG) (AG) (AG) (AG) (AG) (AG) (AU) (AU) (AU) (AG)
                 (AG) (AG) (AG) (AU) (AU) (AG) (AU) (AG) (AG) (AU)
                 (AU) (AU) (AU) (AG) (AG) (AG) (AU) (AU) (AU) (AG)
                 (AG) (AG) (AU) (AU) (AU) (AG) (AG) (AG) (AG) (AU)
                 (AU) (AU) (AG) (AG) (AG) (AG) (AG) (AU) (AU) (AU)
                 (AU) (AU) (AG) (AG) (AU) (AG) (AG) (AU) (AU) (AU)
                 (AG) (AG) (AU) (AU) (AG) (AG) (AU) (AG) (AG) (AU)
                 (AU) (AG) (AU) (AG) (AG) (AG) (AU) (AU) (AG) (AG)
                 (AU) (AU) (AU) (AG) (AG) (AU) (AU) (AU) (AG) (AG)
                 (AU) (AU) (AG) (AU) (AU) (AG) (AG) (AG) (AG) (AG)
                 (AU) (AU) (AU) (AU) (AG) (AG) (AG) (AU) (AU) (AG)
                 (AU) (AG) (AG) (AU) (AU) (AG) (AG) (AG) (AU) (AU)
                 (AU) (AG) (AG) (AG) (AG) (AU) (AU) (AU) (AU) (AU)
                 (AG) (AG) (AU) (AU) (AG) (AG) (AU) (AU) (AG) (AG)
                 (AG) (AG) (AU) (AU) (AU) (AU) (AU) (AU) (AG) (AG)
                 (AG) (AU) (AG) (AU) (AG) (AG) (AU) (AU) (AG) (AG)
                 (AU) (AG) (AU) (AU) (AU) (AU) (AG) (AG) (AG) (AU)
                 (AU) (AU) (AG) (AU) (AG) (AG) (AG) (AG) (AU) (AU)
                 (AU) (AU) (AU) (AG) (AG) (AU) (AG) (AU) (AU) (AG)
                 (AG) (AG) (AG) (AG) (AU) (AU) (AU) (AU) (AU) (AG)
                 (AU) (AG) (AG) (AG) (AU) (AG) (AG) (AU) (AU) (AU)
                 (AU) (AG) (AG) (AU) (AG) (AG) (AG) (AU) (AU) (AU)
                 (AU) (AU) (AG) (AU) (AG) (AG) (AU) (AG) (AG) (AU)
                 (AU) (AG) (AG) (AG) (AU) (AG) (AG) (AU) (AU) (AU)
                 (AU) (AU) (AU) (AG) (AG) (AU) (AU) (AG) (AG) (AG)
                 (AU) (AU) (AU) (AG) (AG) (AG) (AU) (AG) (AU) (AU)
                 (AG) (AG) (AU) (AU) (AU) (AU) (AG) (AU) (AG) (AG)
                 (AU) (AU) (AG) (AU) (AG) (AG) (AU) (AU) (AG) (AG)
                 (AG) (AU) (AU) (AU) (AG) (AG) (AG) (AU) (AU) (AU)
                 (AG) (AG) (AU) (AU) (AU) (AG) (AG) (AU) (AU) (AU)
                 (AU) (AG) (AG) (AG) (AU) (AU) (AG) (AG)
 The electronic state of the initial guess is 4-AG.
 Initial guess <Sx>= 0.0000 <Sy>= 0.0000 <Sz>= 1.5000 <S**2>= 3.7500 S= 1.5000
 Keep R1 and R2 ints in memory in symmetry-blocked form, NReq=2734803760.
 Requested convergence on RMS density matrix=1.00D-08 within 128 cycles.
 Requested convergence on MAX density matrix=1.00D-06.
 Requested convergence on             energy=1.00D-06.
 No special actions if energy rises.
 SCF Done:  E(UM062X) =  -1402.13780210     A.U. after   16 cycles
            NFock= 16  Conv=0.82D-08     -V/T= 2.0017
 <Sx>= 0.0000 <Sy>= 0.0000 <Sz>= 1.5000 <S**2>= 3.7527 S= 1.5007
 <L.S>= 0.000000000000E+00
 Annihilation of the first spin contaminant:
 S**2 before annihilation     3.7527,   after     3.7500

 **********************************************************************

            Population analysis using the SCF density.

 **********************************************************************

 Orbital symmetries:
 Alpha Orbitals:
       Occupied  (AG) (AG) (AU) (AG) (AU) (AG) (AU) (AG) (AU) (AU)
                 (AU) (AG) (AU) (AU) (AU) (AG) (AU) (AU) (AG) (AG)
                 (AU) (AG) (AG) (AU) (AU) (AU) (AG) (AG) (AG) (AG)
                 (AU) (AU) (AU) (AG) (AU) (AG) (AG) (AU) (AU) (AG)
                 (AG) (AG)
       Virtual   (AG) (AU) (AU) (AU) (AG) (AG) (AG) (AG) (AG) (AG)
                 (AU) (AU) (AU) (AG) (AG) (AU) (AU) (AG) (AU) (AU)
                 (AG) (AG) (AG) (AU) (AU) (AU) (AG) (AG) (AG) (AU)
                 (AU) (AG) (AG) (AG) (AU) (AG) (AG) (AU) (AU) (AG)
                 (AU) (AG) (AG) (AU) (AU) (AU) (AG) (AU) (AU) (AG)
                 (AG) (AU) (AG) (AG) (AU) (AU) (AU) (AG) (AG) (AU)
                 (AU) (AG) (AG) (AU) (AG) (AG) (AG) (AU) (AG) (AU)
                 (AU) (AG) (AG) (AU) (AU) (AG) (AG) (AU) (AU) (AU)
                 (AU) (AG) (AG) (AU) (AU) (AG) (AG) (AU) (AU) (AG)
                 (AU) (AU) (AG) (AG) (AG) (AG) (AG) (AU) (AU) (AU)
                 (AG) (AG) (AU) (AU) (AG) (AU) (AG) (AU) (AU) (AU)
                 (AG) (AG) (AG) (AU) (AU) (AG) (AG) (AU) (AG) (AG)
                 (AG) (AG) (AU) (AU) (AU) (AU) (AU) (AG) (AG) (AU)
                 (AU) (AG) (AG) (AU) (AU) (AG) (AG) (AG) (AG) (AU)
                 (AU) (AU) (AU) (AU) (AU) (AU) (AG) (AG) (AG) (AU)
                 (AG) (AG) (AU) (AU) (AG) (AU) (AU) (AG) (AU) (AG)
                 (AG) (AU) (AU) (AG) (AG) (AG) (AU) (AU) (AU) (AU)
                 (AG) (AG) (AG) (AU) (AU) (AG) (AG) (AU) (AU) (AU)
                 (AG) (AG) (AU) (AG) (AU) (AU) (AG) (AG) (AG) (AG)
                 (AG) (AU) (AU) (AU) (AU) (AU) (AG) (AU) (AG) (AG)
                 (AG) (AU) (AG) (AG) (AU) (AU) (AU) (AU) (AG) (AG)
                 (AU) (AG) (AU) (AG) (AG) (AU) (AU) (AU) (AU) (AU)
                 (AG) (AG) (AG) (AG) (AU) (AG) (AU) (AU) (AG) (AG)
                 (AG) (AU) (AU) (AU) (AG) (AG) (AU) (AU) (AU) (AU)
                 (AG) (AG) (AU) (AU) (AG) (AG) (AG) (AU) (AU) (AU)
                 (AG) (AG) (AG) (AU) (AG) (AU) (AU) (AG) (AG) (AU)
                 (AU) (AU) (AU) (AG) (AU) (AG) (AG) (AU) (AU) (AG)
                 (AU) (AG) (AG) (AU) (AU) (AG) (AG) (AG) (AU) (AU)
                 (AU) (AG) (AG) (AG) (AU) (AU) (AU) (AG) (AG) (AU)
                 (AU) (AU) (AG) (AG) (AU) (AU) (AU) (AU) (AG) (AG)
                 (AG) (AU) (AU) (AG) (AG)
 Beta  Orbitals:
       Occupied  (AG) (AG) (AU) (AG) (AU) (AG) (AU) (AG) (AU) (AU)
                 (AU) (AG) (AU) (AU) (AU) (AG) (AU) (AU) (AG) (AG)
                 (AU) (AG) (AG) (AU) (AU) (AU) (AG) (AG) (AG) (AG)
                 (AU) (AU) (AU) (AG) (AU) (AU) (AU) (AG) (AG)
       Virtual   (AG) (AU) (AU) (AU) (AG) (AG) (AG) (AG) (AG) (AG)
                 (AG) (AU) (AU) (AU) (AG) (AG) (AU) (AU) (AG) (AG)
                 (AG) (AU) (AU) (AG) (AU) (AU) (AG) (AG) (AU) (AG)
                 (AG) (AG) (AU) (AU) (AU) (AG) (AG) (AG) (AG) (AG)
                 (AU) (AU) (AG) (AU) (AG) (AG) (AU) (AU) (AU) (AG)
                 (AU) (AU) (AU) (AG) (AG) (AG) (AG) (AU) (AU) (AG)
                 (AU) (AG) (AU) (AU) (AG) (AG) (AU) (AG) (AG) (AG)
                 (AG) (AU) (AU) (AU) (AG) (AG) (AU) (AU) (AG) (AG)
                 (AU) (AU) (AU) (AG) (AG) (AU) (AU) (AU) (AU) (AU)
                 (AG) (AG) (AG) (AU) (AG) (AG) (AU) (AG) (AG) (AG)
                 (AU) (AU) (AG) (AG) (AU) (AU) (AU) (AU) (AG) (AG)
                 (AU) (AU) (AU) (AG) (AG) (AG) (AU) (AU) (AG) (AG)
                 (AU) (AG) (AG) (AG) (AG) (AU) (AU) (AU) (AG) (AU)
                 (AG) (AU) (AU) (AU) (AG) (AU) (AU) (AG) (AG) (AG)
                 (AG) (AG) (AU) (AU) (AU) (AU) (AU) (AU) (AG) (AG)
                 (AG) (AU) (AU) (AG) (AG) (AG) (AU) (AU) (AU) (AU)
                 (AU) (AG) (AG) (AG) (AU) (AU) (AG) (AG) (AG) (AU)
                 (AU) (AU) (AU) (AG) (AG) (AG) (AU) (AU) (AG) (AG)
                 (AU) (AU) (AU) (AG) (AG) (AU) (AG) (AU) (AU) (AG)
                 (AG) (AG) (AG) (AG) (AU) (AU) (AU) (AU) (AU) (AG)
                 (AU) (AG) (AG) (AG) (AU) (AG) (AG) (AU) (AU) (AU)
                 (AU) (AG) (AG) (AU) (AG) (AU) (AU) (AG) (AG) (AU)
                 (AU) (AU) (AU) (AG) (AG) (AG) (AG) (AU) (AG) (AU)
                 (AU) (AG) (AG) (AG) (AU) (AU) (AU) (AG) (AG) (AU)
                 (AU) (AU) (AU) (AG) (AG) (AU) (AU) (AG) (AG) (AG)
                 (AU) (AU) (AU) (AG) (AG) (AG) (AU) (AG) (AU) (AU)
                 (AG) (AG) (AU) (AU) (AU) (AU) (AG) (AU) (AG) (AG)
                 (AU) (AU) (AG) (AU) (AG) (AG) (AU) (AU) (AG) (AG)
                 (AG) (AU) (AU) (AU) (AG) (AG) (AG) (AU) (AU) (AU)
                 (AG) (AG) (AU) (AU) (AU) (AG) (AG) (AU) (AU) (AU)
                 (AU) (AG) (AG) (AG) (AU) (AU) (AG) (AG)
 The electronic state is 4-AG.
 Alpha  occ. eigenvalues -- -198.69630 -22.98157 -19.95941 -19.95941 -19.95935
 Alpha  occ. eigenvalues --  -19.95935 -19.95926 -19.95926 -19.48017 -19.48017
 Alpha  occ. eigenvalues --  -19.47962  -3.10890  -2.11476  -2.11476  -2.11359
 Alpha  occ. eigenvalues --   -1.47477  -1.46876  -1.46858  -1.46718  -1.46705
 Alpha  occ. eigenvalues --   -1.46621  -0.95158  -0.95143  -0.94514  -0.94509
 Alpha  occ. eigenvalues --   -0.94454  -0.93464  -0.87558  -0.83983  -0.83954
 Alpha  occ. eigenvalues --   -0.83798  -0.83776  -0.82499  -0.76545  -0.74452
 Alpha  occ. eigenvalues --   -0.73803  -0.73797  -0.73767  -0.73739  -0.59015
 Alpha  occ. eigenvalues --   -0.59008  -0.58074
 Alpha virt. eigenvalues --   -0.28545  -0.24908  -0.24891  -0.24606  -0.23332
 Alpha virt. eigenvalues --   -0.23331  -0.20375  -0.20363  -0.18453  -0.18436
 Alpha virt. eigenvalues --   -0.17082  -0.17072  -0.16423  -0.15306  -0.14016
 Alpha virt. eigenvalues --   -0.13705  -0.13456  -0.12773  -0.12592  -0.12589
 Alpha virt. eigenvalues --   -0.08726  -0.07897  -0.07864  -0.07509  -0.07497
 Alpha virt. eigenvalues --   -0.06992  -0.05362  -0.04432  -0.04415  -0.04274
 Alpha virt. eigenvalues --   -0.04256  -0.03355  -0.03339  -0.03238  -0.03221
 Alpha virt. eigenvalues --   -0.01596  -0.01556  -0.00794  -0.00770  -0.00545
 Alpha virt. eigenvalues --   -0.00027   0.01790   0.01853   0.02422   0.02478
 Alpha virt. eigenvalues --    0.02486   0.02795   0.03734   0.03754   0.04802
 Alpha virt. eigenvalues --    0.04827   0.07100   0.11255   0.14377   0.16585
 Alpha virt. eigenvalues --    0.16761   0.16775   0.17425   0.17443   0.20545
 Alpha virt. eigenvalues --    0.20746   0.23281   0.23323   0.27887   0.30514
 Alpha virt. eigenvalues --    0.31388   0.31405   0.31667   0.31715   0.32024
 Alpha virt. eigenvalues --    0.32026   0.33532   0.33547   0.34868   0.34914
 Alpha virt. eigenvalues --    0.36095   0.43648   0.46366   0.46507   0.46694
 Alpha virt. eigenvalues --    0.48163   0.48368   0.48408   0.55741   0.55783
 Alpha virt. eigenvalues --    0.55962   0.56024   0.57236   0.57286   0.57846
 Alpha virt. eigenvalues --    0.58191   0.62536   0.62566   0.62612   0.66552
 Alpha virt. eigenvalues --    0.67368   0.67401   0.69191   0.69268   0.76937
 Alpha virt. eigenvalues --    0.77707   0.77761   0.77923   0.77982   0.78239
 Alpha virt. eigenvalues --    0.80492   0.82847   0.87407   0.87540   0.88455
 Alpha virt. eigenvalues --    0.90199   0.90295   0.92938   0.93867   0.94049
 Alpha virt. eigenvalues --    0.97225   0.97375   0.98696   1.01546   1.05729
 Alpha virt. eigenvalues --    1.05746   1.06086   1.09404   1.09416   1.10648
 Alpha virt. eigenvalues --    1.13362   1.13526   1.13532   1.13728   1.15912
 Alpha virt. eigenvalues --    1.17605   1.19072   1.19159   1.19791   1.19799
 Alpha virt. eigenvalues --    1.20389   1.21508   1.23882   1.23933   1.30392
 Alpha virt. eigenvalues --    1.30457   1.31036   1.33359   1.33397   1.35255
 Alpha virt. eigenvalues --    1.43956   1.43966   1.45605   1.45787   1.50645
 Alpha virt. eigenvalues --    1.51256   1.51427   1.51620   1.51666   1.52220
 Alpha virt. eigenvalues --    1.59021   1.59133   1.61200   1.61381   1.61705
 Alpha virt. eigenvalues --    1.61788   1.68188   1.68235   1.80273   1.88693
 Alpha virt. eigenvalues --    1.88698   1.90002   1.94877   1.94913   1.98737
 Alpha virt. eigenvalues --    2.02812   2.02855   2.02956   2.13430   2.13706
 Alpha virt. eigenvalues --    2.14469   2.14734   2.19137   2.19197   2.19314
 Alpha virt. eigenvalues --    2.23929   2.23932   2.24164   2.28779   2.36385
 Alpha virt. eigenvalues --    2.36571   2.45689   2.60117   2.61704   2.63316
 Alpha virt. eigenvalues --    2.63335   2.66145   2.68432   2.68499   3.42890
 Alpha virt. eigenvalues --    3.42958   3.44166   3.44206   3.52855   3.52913
 Alpha virt. eigenvalues --    3.54386   3.55817   3.56451   3.56537   3.56706
 Alpha virt. eigenvalues --    3.56787   3.63253   3.63414   3.63698   3.63856
 Alpha virt. eigenvalues --    3.64891   3.69822   3.78938   3.80702   3.80748
 Alpha virt. eigenvalues --    3.81082   3.81247   3.82925   3.84336   3.84354
 Alpha virt. eigenvalues --    3.84990   3.85120   3.85366   3.88158   3.88638
 Alpha virt. eigenvalues --    3.94111   3.95510   3.95540   3.96485   3.96509
 Alpha virt. eigenvalues --    4.10463   4.15259   4.22516   4.22578   4.22737
 Alpha virt. eigenvalues --    4.22756   4.35772   4.53905   4.53954   4.56851
 Alpha virt. eigenvalues --    4.66842   4.66885   4.86508   4.86617   4.94689
 Alpha virt. eigenvalues --    4.94730   4.95644   5.01190   5.45968   5.46022
 Alpha virt. eigenvalues --    5.50413   5.51739   5.51835   5.53127   5.92671
 Alpha virt. eigenvalues --    5.95303   5.95391   5.98503   5.98521   6.01987
 Alpha virt. eigenvalues --    6.17472   6.20190   6.20199   6.55505   6.55862
 Alpha virt. eigenvalues --    6.56194   6.56327   6.56997   6.57111   6.60550
 Alpha virt. eigenvalues --    6.61349   6.62653   6.62658   6.64279   6.64298
 Alpha virt. eigenvalues --    6.75960   6.90520   6.90667   6.94048   6.95237
 Alpha virt. eigenvalues --    6.95274   6.95550   6.97298   6.97311   7.09276
 Alpha virt. eigenvalues --    7.09631   7.10793   7.12913   7.12974   7.14961
 Alpha virt. eigenvalues --    7.15004   7.17418   7.26627  20.19846  27.07495
 Alpha virt. eigenvalues --   27.12516  27.12614  49.72382  49.72740  49.72797
 Alpha virt. eigenvalues --   49.75967  49.81869  49.81977 118.69943 643.75424
  Beta  occ. eigenvalues -- -198.69785 -22.93654 -19.95940 -19.95940 -19.95934
  Beta  occ. eigenvalues --  -19.95934 -19.95925 -19.95925 -19.44239 -19.44236
  Beta  occ. eigenvalues --  -19.43966  -2.98669  -1.96719  -1.96708  -1.96006
  Beta  occ. eigenvalues --   -1.47445  -1.46825  -1.46808  -1.46700  -1.46687
  Beta  occ. eigenvalues --   -1.46575  -0.94961  -0.94948  -0.94437  -0.94431
  Beta  occ. eigenvalues --   -0.94391  -0.93416  -0.87382  -0.83941  -0.83913
  Beta  occ. eigenvalues --   -0.83898  -0.83876  -0.82634  -0.75615  -0.74188
  Beta  occ. eigenvalues --   -0.73556  -0.73530  -0.73279  -0.73276
  Beta virt. eigenvalues --   -0.28392  -0.24842  -0.24823  -0.24523  -0.22002
  Beta virt. eigenvalues --   -0.21991  -0.20691  -0.20688  -0.19571  -0.19552
  Beta virt. eigenvalues --   -0.18349  -0.17003  -0.16993  -0.16366  -0.15051
  Beta virt. eigenvalues --   -0.13928  -0.13737  -0.13400  -0.12859  -0.12825
  Beta virt. eigenvalues --   -0.12736  -0.12329  -0.12318  -0.08733  -0.07392
  Beta virt. eigenvalues --   -0.07386  -0.07099  -0.07064  -0.06550  -0.04335
  Beta virt. eigenvalues --   -0.04165  -0.04152  -0.03972  -0.03957  -0.03085
  Beta virt. eigenvalues --   -0.02817  -0.02793  -0.02104  -0.01495  -0.01458
  Beta virt. eigenvalues --   -0.00570  -0.00551  -0.00477   0.01202   0.02188
  Beta virt. eigenvalues --    0.02260   0.02482   0.02492   0.02563   0.03708
  Beta virt. eigenvalues --    0.04345   0.04365   0.07097   0.07481   0.07513
  Beta virt. eigenvalues --    0.14245   0.15698   0.17150   0.17189   0.17865
  Beta virt. eigenvalues --    0.17895   0.17903   0.21555   0.21734   0.24343
  Beta virt. eigenvalues --    0.24367   0.28151   0.30492   0.31456   0.31474
  Beta virt. eigenvalues --    0.31749   0.31793   0.32393   0.32402   0.33602
  Beta virt. eigenvalues --    0.33613   0.34951   0.35000   0.36125   0.43658
  Beta virt. eigenvalues --    0.46501   0.46638   0.47073   0.48477   0.48518
  Beta virt. eigenvalues --    0.48564   0.56103   0.56116   0.58018   0.58054
  Beta virt. eigenvalues --    0.58207   0.58233   0.58278   0.58982   0.62731
  Beta virt. eigenvalues --    0.62776   0.63008   0.66691   0.68262   0.68286
  Beta virt. eigenvalues --    0.69788   0.69869   0.77879   0.77925   0.78540
  Beta virt. eigenvalues --    0.78620   0.80026   0.80760   0.81858   0.82996
  Beta virt. eigenvalues --    0.88228   0.88345   0.89702   0.91248   0.91367
  Beta virt. eigenvalues --    0.93474   0.94128   0.94301   0.98423   0.98571
  Beta virt. eigenvalues --    1.00768   1.01883   1.08664   1.08826   1.08831
  Beta virt. eigenvalues --    1.11281   1.11305   1.11621   1.13949   1.14096
  Beta virt. eigenvalues --    1.14127   1.14252   1.16582   1.18611   1.19828
  Beta virt. eigenvalues --    1.19880   1.19893   1.19906   1.20383   1.21669
  Beta virt. eigenvalues --    1.24369   1.24404   1.32512   1.32614   1.34137
  Beta virt. eigenvalues --    1.36292   1.36311   1.37923   1.44188   1.46204
  Beta virt. eigenvalues --    1.46402   1.47040   1.51002   1.51429   1.51594
  Beta virt. eigenvalues --    1.52233   1.53416   1.53508   1.60192   1.60259
  Beta virt. eigenvalues --    1.61709   1.62337   1.62474   1.62589   1.69515
  Beta virt. eigenvalues --    1.69592   1.81328   1.89449   1.89464   1.90483
  Beta virt. eigenvalues --    1.95308   1.95348   1.99363   2.03208   2.03453
  Beta virt. eigenvalues --    2.03556   2.14941   2.15185   2.16075   2.16382
  Beta virt. eigenvalues --    2.19862   2.19907   2.21295   2.24111   2.24113
  Beta virt. eigenvalues --    2.24487   2.28829   2.36973   2.37157   2.46415
  Beta virt. eigenvalues --    2.61771   2.63830   2.63851   2.64481   2.66741
  Beta virt. eigenvalues --    2.68796   2.68862   3.42991   3.43056   3.44160
  Beta virt. eigenvalues --    3.44260   3.52928   3.52985   3.54538   3.55888
  Beta virt. eigenvalues --    3.56502   3.56586   3.56748   3.56828   3.63294
  Beta virt. eigenvalues --    3.63452   3.63759   3.63919   3.64938   3.69926
  Beta virt. eigenvalues --    3.79940   3.81376   3.81398   3.81444   3.81544
  Beta virt. eigenvalues --    3.83588   3.84470   3.84486   3.85160   3.85288
  Beta virt. eigenvalues --    3.85422   3.88268   3.89514   3.94435   3.95585
  Beta virt. eigenvalues --    3.95614   3.96530   3.96552   4.21807   4.22668
  Beta virt. eigenvalues --    4.29862   4.29951   4.33288   4.33300   4.42173
  Beta virt. eigenvalues --    4.59376   4.59416   4.61738   4.68286   4.68338
  Beta virt. eigenvalues --    4.86754   4.86862   4.94887   4.94932   4.95773
  Beta virt. eigenvalues --    5.01353   5.46173   5.46224   5.50528   5.52015
  Beta virt. eigenvalues --    5.52112   5.53484   5.92746   5.95469   5.95559
  Beta virt. eigenvalues --    5.98616   5.98634   6.02179   6.19190   6.21859
  Beta virt. eigenvalues --    6.21878   6.55517   6.55871   6.56189   6.56322
  Beta virt. eigenvalues --    6.57031   6.57145   6.60583   6.61374   6.62685
  Beta virt. eigenvalues --    6.62691   6.64358   6.64381   6.75936   6.90633
  Beta virt. eigenvalues --    6.90789   6.94111   6.95318   6.95352   6.95589
  Beta virt. eigenvalues --    6.97307   6.97319   7.10079   7.10435   7.11720
  Beta virt. eigenvalues --    7.12967   7.13033   7.15029   7.15076   7.17509
  Beta virt. eigenvalues --    7.26657  20.30951  27.11326  27.16124  27.16218
  Beta virt. eigenvalues --   49.72376  49.72735  49.72792  49.75961  49.81864
  Beta virt. eigenvalues --   49.81972 118.70572 643.75176
          Condensed to atoms (all electrons):
               1          2          3          4          5          6
     1  V   21.854121   0.051069   0.050924  -0.007087  -0.007212  -0.006977
     2  O    0.051069   8.053037  -0.049162   0.274928   0.002762   0.000529
     3  O    0.050924  -0.049162   8.053958   0.002617   0.275612   0.273895
     4  H   -0.007087   0.274928   0.002617   0.404827  -0.000372   0.000872
     5  H   -0.007212   0.002762   0.275612  -0.000372   0.404302  -0.019160
     6  H   -0.006977   0.000529   0.273895   0.000872  -0.019160   0.405134
     7  O    0.051069   0.026345  -0.048355   0.000019   0.000309   0.003632
     8  O    0.050924  -0.048355   0.026473   0.000188   0.000017   0.000007
     9  O    0.050800  -0.048754  -0.051382   0.003838   0.000499   0.003001
    10  O    0.050800  -0.049646  -0.047957   0.000602   0.003491   0.000301
    11  H   -0.007162   0.275196   0.000617  -0.019133   0.000870   0.000233
    12  H   -0.007087   0.000019   0.000188   0.000079   0.000162   0.000585
    13  H   -0.007162   0.000016   0.003873  -0.000034   0.000589  -0.002634
    14  H   -0.007212   0.000309   0.000017   0.000162   0.000081  -0.000035
    15  H   -0.006977   0.003632   0.000007   0.000585  -0.000035   0.000079
    16  H   -0.007234   0.000277   0.000548   0.000592   0.000234   0.000882
    17  H   -0.006980   0.003630   0.003022  -0.002622   0.000884  -0.000407
    18  H   -0.007234   0.002762   0.003565   0.000874  -0.002571   0.000586
    19  H   -0.006980   0.000562   0.000288   0.000234   0.000590   0.000156
               7          8          9         10         11         12
     1  V    0.051069   0.050924   0.050800   0.050800  -0.007162  -0.007087
     2  O    0.026345  -0.048355  -0.048754  -0.049646   0.275196   0.000019
     3  O   -0.048355   0.026473  -0.051382  -0.047957   0.000617   0.000188
     4  H    0.000019   0.000188   0.003838   0.000602  -0.019133   0.000079
     5  H    0.000309   0.000017   0.000499   0.003491   0.000870   0.000162
     6  H    0.003632   0.000007   0.003001   0.000301   0.000233   0.000585
     7  O    8.053037  -0.049162  -0.049646  -0.048754   0.000016   0.274928
     8  O   -0.049162   8.053958  -0.047957  -0.051382   0.003873   0.002617
     9  O   -0.049646  -0.047957   8.054844   0.026539   0.000173   0.000602
    10  O   -0.048754  -0.051382   0.026539   8.054844   0.002583   0.003838
    11  H    0.000016   0.003873   0.000173   0.002583   0.404693  -0.000034
    12  H    0.274928   0.002617   0.000602   0.003838  -0.000034   0.404827
    13  H    0.275196   0.000617   0.002583   0.000173   0.000078  -0.019133
    14  H    0.002762   0.275612   0.003491   0.000499   0.000589  -0.000372
    15  H    0.000529   0.273895   0.000301   0.003001  -0.002634   0.000872
    16  H    0.002762   0.003565   0.275627   0.000011   0.000159   0.000874
    17  H    0.000562   0.000288   0.274122   0.000003   0.000584   0.000234
    18  H    0.000277   0.000548   0.000011   0.275627  -0.000380   0.000592
    19  H    0.003630   0.003022   0.000003   0.274122   0.000870  -0.002622
              13         14         15         16         17         18
     1  V   -0.007162  -0.007212  -0.006977  -0.007234  -0.006980  -0.007234
     2  O    0.000016   0.000309   0.003632   0.000277   0.003630   0.002762
     3  O    0.003873   0.000017   0.000007   0.000548   0.003022   0.003565
     4  H   -0.000034   0.000162   0.000585   0.000592  -0.002622   0.000874
     5  H    0.000589   0.000081  -0.000035   0.000234   0.000884  -0.002571
     6  H   -0.002634  -0.000035   0.000079   0.000882  -0.000407   0.000586
     7  O    0.275196   0.002762   0.000529   0.002762   0.000562   0.000277
     8  O    0.000617   0.275612   0.273895   0.003565   0.000288   0.000548
     9  O    0.002583   0.003491   0.000301   0.275627   0.274122   0.000011
    10  O    0.000173   0.000499   0.003001   0.000011   0.000003   0.275627
    11  H    0.000078   0.000589  -0.002634   0.000159   0.000584  -0.000380
    12  H   -0.019133  -0.000372   0.000872   0.000874   0.000234   0.000592
    13  H    0.404693   0.000870   0.000233  -0.000380   0.000870   0.000159
    14  H    0.000870   0.404302  -0.019160  -0.002571   0.000590   0.000234
    15  H    0.000233  -0.019160   0.405134   0.000586   0.000156   0.000882
    16  H   -0.000380  -0.002571   0.000586   0.404484  -0.019220   0.000080
    17  H    0.000870   0.000590   0.000156  -0.019220   0.405112  -0.000035
    18  H    0.000159   0.000234   0.000882   0.000080  -0.000035   0.404484
    19  H    0.000584   0.000884  -0.000407  -0.000035   0.000078  -0.019220
              19
     1  V   -0.006980
     2  O    0.000562
     3  O    0.000288
     4  H    0.000234
     5  H    0.000590
     6  H    0.000156
     7  O    0.003630
     8  O    0.003022
     9  O    0.000003
    10  O    0.274122
    11  H    0.000870
    12  H   -0.002622
    13  H    0.000584
    14  H    0.000884
    15  H   -0.000407
    16  H   -0.000035
    17  H    0.000078
    18  H   -0.019220
    19  H    0.405112
          Atomic-Atomic Spin Densities.
               1          2          3          4          5          6
     1  V    3.256492  -0.023157  -0.024675  -0.002292  -0.002158  -0.002210
     2  O   -0.023157  -0.015648   0.006012   0.003111   0.000057   0.000058
     3  O   -0.024675   0.006012  -0.014231   0.000104   0.002862   0.003412
     4  H   -0.002292   0.003111   0.000104  -0.000137   0.000006  -0.000048
     5  H   -0.002158   0.000057   0.002862   0.000006  -0.000013  -0.000140
     6  H   -0.002210   0.000058   0.003412  -0.000048  -0.000140  -0.000354
     7  O   -0.023157  -0.002528   0.003643   0.000023   0.000083  -0.000009
     8  O   -0.024675   0.003643  -0.002456   0.000102   0.000029   0.000031
     9  O   -0.025213   0.003752   0.006524   0.000094   0.000082   0.000012
    10  O   -0.025213   0.006648   0.003355   0.000066   0.000127   0.000118
    11  H   -0.002252   0.003129   0.000048  -0.000106  -0.000043  -0.000025
    12  H   -0.002292   0.000023   0.000102   0.000011   0.000021  -0.000036
    13  H   -0.002252   0.000025   0.000041  -0.000017  -0.000035  -0.000182
    14  H   -0.002158   0.000083   0.000029   0.000021   0.000012  -0.000018
    15  H   -0.002210  -0.000009   0.000031  -0.000036  -0.000018   0.000013
    16  H   -0.002209   0.000099   0.000049  -0.000037  -0.000028  -0.000047
    17  H   -0.002223   0.000009  -0.000023  -0.000187  -0.000045   0.000033
    18  H   -0.002209  -0.000041   0.000054  -0.000045  -0.000194  -0.000034
    19  H   -0.002223   0.000046   0.000107  -0.000026  -0.000036   0.000024
               7          8          9         10         11         12
     1  V   -0.023157  -0.024675  -0.025213  -0.025213  -0.002252  -0.002292
     2  O   -0.002528   0.003643   0.003752   0.006648   0.003129   0.000023
     3  O    0.003643  -0.002456   0.006524   0.003355   0.000048   0.000102
     4  H    0.000023   0.000102   0.000094   0.000066  -0.000106   0.000011
     5  H    0.000083   0.000029   0.000082   0.000127  -0.000043   0.000021
     6  H   -0.000009   0.000031   0.000012   0.000118  -0.000025  -0.000036
     7  O   -0.015648   0.006012   0.006648   0.003752   0.000025   0.003111
     8  O    0.006012  -0.014231   0.003355   0.006524   0.000041   0.000104
     9  O    0.006648   0.003355  -0.014801  -0.002476   0.000128   0.000066
    10  O    0.003752   0.006524  -0.002476  -0.014801   0.000056   0.000094
    11  H    0.000025   0.000041   0.000128   0.000056  -0.000182  -0.000017
    12  H    0.003111   0.000104   0.000066   0.000094  -0.000017  -0.000137
    13  H    0.003129   0.000048   0.000056   0.000128   0.000013  -0.000106
    14  H    0.000057   0.002862   0.000127   0.000082  -0.000035   0.000006
    15  H    0.000058   0.003412   0.000118   0.000012  -0.000182  -0.000048
    16  H   -0.000041   0.000054   0.003103   0.000039   0.000026  -0.000045
    17  H    0.000046   0.000107   0.003150   0.000041  -0.000037  -0.000026
    18  H    0.000099   0.000049   0.000039   0.003103   0.000030  -0.000037
    19  H    0.000009  -0.000023   0.000041   0.003150  -0.000049  -0.000187
              13         14         15         16         17         18
     1  V   -0.002252  -0.002158  -0.002210  -0.002209  -0.002223  -0.002209
     2  O    0.000025   0.000083  -0.000009   0.000099   0.000009  -0.000041
     3  O    0.000041   0.000029   0.000031   0.000049  -0.000023   0.000054
     4  H   -0.000017   0.000021  -0.000036  -0.000037  -0.000187  -0.000045
     5  H   -0.000035   0.000012  -0.000018  -0.000028  -0.000045  -0.000194
     6  H   -0.000182  -0.000018   0.000013  -0.000047   0.000033  -0.000034
     7  O    0.003129   0.000057   0.000058  -0.000041   0.000046   0.000099
     8  O    0.000048   0.002862   0.003412   0.000054   0.000107   0.000049
     9  O    0.000056   0.000127   0.000118   0.003103   0.003150   0.000039
    10  O    0.000128   0.000082   0.000012   0.000039   0.000041   0.003103
    11  H    0.000013  -0.000035  -0.000182   0.000026  -0.000037   0.000030
    12  H   -0.000106   0.000006  -0.000048  -0.000045  -0.000026  -0.000037
    13  H   -0.000182  -0.000043  -0.000025   0.000030  -0.000049   0.000026
    14  H   -0.000043  -0.000013  -0.000140  -0.000194  -0.000036  -0.000028
    15  H   -0.000025  -0.000140  -0.000354  -0.000034   0.000024  -0.000047
    16  H    0.000030  -0.000194  -0.000034  -0.000391  -0.000064   0.000014
    17  H   -0.000049  -0.000036   0.000024  -0.000064  -0.000322  -0.000018
    18  H    0.000026  -0.000028  -0.000047   0.000014  -0.000018  -0.000391
    19  H   -0.000037  -0.000045   0.000033  -0.000018   0.000014  -0.000064
              19
     1  V   -0.002223
     2  O    0.000046
     3  O    0.000107
     4  H   -0.000026
     5  H   -0.000036
     6  H    0.000024
     7  O    0.000009
     8  O   -0.000023
     9  O    0.000041
    10  O    0.003150
    11  H   -0.000049
    12  H   -0.000187
    13  H   -0.000037
    14  H   -0.000045
    15  H    0.000033
    16  H   -0.000018
    17  H    0.000014
    18  H   -0.000064
    19  H   -0.000322
 Mulliken charges and spin densities:
               1          2
     1  V    0.925597   3.083712
     2  O   -0.499154  -0.014689
     3  O   -0.498747  -0.015012
     4  H    0.338832   0.000606
     5  H    0.338948   0.000569
     6  H    0.339319   0.000598
     7  O   -0.499154  -0.014689
     8  O   -0.498747  -0.015012
     9  O   -0.498696  -0.015196
    10  O   -0.498696  -0.015196
    11  H    0.338810   0.000567
    12  H    0.338832   0.000606
    13  H    0.338810   0.000567
    14  H    0.338948   0.000569
    15  H    0.339319   0.000598
    16  H    0.338760   0.000307
    17  H    0.339128   0.000394
    18  H    0.338760   0.000307
    19  H    0.339128   0.000394
 Sum of Mulliken charges =   2.00000   3.00000
 Mulliken charges and spin densities with hydrogens summed into heavy atoms:
               1          2
     1  V    0.925597   3.083712
     2  O    0.178489  -0.013516
     3  O    0.179521  -0.013845
     7  O    0.178489  -0.013516
     8  O    0.179521  -0.013845
     9  O    0.179192  -0.014495
    10  O    0.179192  -0.014495
 Electronic spatial extent (au):  <R**2>=           1178.3516
 Charge=              2.0000 electrons
 Dipole moment (field-independent basis, Debye):
    X=              0.0000    Y=              0.0000    Z=              0.0000  Tot=              0.0000
 Quadrupole moment (field-independent basis, Debye-Ang):
   XX=            -15.5389   YY=            -15.7959   ZZ=            -15.0420
   XY=             -2.7649   XZ=             -2.3789   YZ=             -2.6166
 Traceless Quadrupole moment (field-independent basis, Debye-Ang):
   XX=             -0.0800   YY=             -0.3369   ZZ=              0.4169
   XY=             -2.7649   XZ=             -2.3789   YZ=             -2.6166
 Octapole moment (field-independent basis, Debye-Ang**2):
  XXX=              0.0000  YYY=              0.0000  ZZZ=              0.0000  XYY=              0.0000
  XXY=              0.0000  XXZ=              0.0000  XZZ=              0.0000  YZZ=              0.0000
  YYZ=              0.0000  XYZ=              0.0000
 Hexadecapole moment (field-independent basis, Debye-Ang**3):
 XXXX=           -113.8904 YYYY=           -111.6545 ZZZZ=           -121.1251 XXXY=             17.1504
 XXXZ=              8.4912 YYYX=              9.4267 YYYZ=              3.6215 ZZZX=             24.0278
 ZZZY=             27.1212 XXYY=           -111.1992 XXZZ=           -105.2630 YYZZ=           -106.0192
 XXYZ=            -19.3425 YYXZ=            -21.2174 ZZXY=            -13.5132
 N-N= 6.096829822920D+02 E-N=-4.516483373948D+03  KE= 1.399772599718D+03
 Symmetry AG   KE= 8.575006704401D+02
 Symmetry AU   KE= 5.422719292778D+02
                          Isotropic Fermi Contact Couplings
        Atom                 a.u.       MegaHertz       Gauss      10(-4) cm-1
     1  V(51)             -0.65408    -256.79399     -91.63048     -85.65725
     2  O(17)             -0.01395       2.81890       1.00586       0.94029
     3  O(17)             -0.01420       2.86913       1.02378       0.95704
     4  H(1)               0.00101       1.50185       0.53590       0.50096
     5  H(1)               0.00102       1.51885       0.54196       0.50663
     6  H(1)               0.00101       1.51202       0.53953       0.50436
     7  O(17)             -0.01395       2.81890       1.00586       0.94029
     8  O(17)             -0.01420       2.86913       1.02378       0.95704
     9  O(17)             -0.01433       2.89563       1.03323       0.96588
    10  O(17)             -0.01433       2.89563       1.03323       0.96588
    11  H(1)               0.00101       1.50531       0.53713       0.50212
    12  H(1)               0.00101       1.50185       0.53590       0.50096
    13  H(1)               0.00101       1.50531       0.53713       0.50212
    14  H(1)               0.00102       1.51885       0.54196       0.50663
    15  H(1)               0.00101       1.51202       0.53953       0.50436
    16  H(1)               0.00100       1.49281       0.53267       0.49795
    17  H(1)               0.00101       1.50834       0.53821       0.50313
    18  H(1)               0.00100       1.49281       0.53267       0.49795
    19  H(1)               0.00101       1.50834       0.53821       0.50313
 --------------------------------------------------------
       Center         ----  Spin Dipole Couplings  ----
                      3XX-RR        3YY-RR        3ZZ-RR
 --------------------------------------------------------
     1   Atom        0.002371      0.009892     -0.012264
     2   Atom        0.024157     -0.008735     -0.015422
     3   Atom       -0.009685      0.024403     -0.014717
     4   Atom        0.033864     -0.016414     -0.017450
     5   Atom       -0.015734      0.033524     -0.017789
     6   Atom       -0.017438      0.031888     -0.014450
     7   Atom        0.024157     -0.008735     -0.015422
     8   Atom       -0.009685      0.024403     -0.014717
     9   Atom       -0.012890     -0.011055      0.023945
    10   Atom       -0.012890     -0.011055      0.023945
    11   Atom        0.031739     -0.016919     -0.014820
    12   Atom        0.033864     -0.016414     -0.017450
    13   Atom        0.031739     -0.016919     -0.014820
    14   Atom       -0.015734      0.033524     -0.017789
    15   Atom       -0.017438      0.031888     -0.014450
    16   Atom       -0.016616     -0.015988      0.032604
    17   Atom       -0.016205     -0.016996      0.033201
    18   Atom       -0.016616     -0.015988      0.032604
    19   Atom       -0.016205     -0.016996      0.033201
 --------------------------------------------------------
                        XY            XZ            YZ
 --------------------------------------------------------
     1   Atom        0.083642      0.074026      0.078175
     2   Atom        0.003212     -0.000250      0.032861
     3   Atom        0.002520      0.033289      0.000102
     4   Atom       -0.010680      0.009033     -0.001589
     5   Atom       -0.012285     -0.001617      0.007993
     6   Atom        0.008992     -0.002312     -0.014627
     7   Atom        0.003212     -0.000250      0.032861
     8   Atom        0.002520      0.033289      0.000102
     9   Atom        0.033526      0.002208      0.003212
    10   Atom        0.033526      0.002208      0.003212
    11   Atom        0.010161     -0.013879     -0.002504
    12   Atom       -0.010680      0.009033     -0.001589
    13   Atom        0.010161     -0.013879     -0.002504
    14   Atom       -0.012285     -0.001617      0.007993
    15   Atom        0.008992     -0.002312     -0.014627
    16   Atom       -0.002186     -0.010194      0.012427
    17   Atom       -0.001895      0.012140     -0.009239
    18   Atom       -0.002186     -0.010194      0.012427
    19   Atom       -0.001895      0.012140     -0.009239
 --------------------------------------------------------


 ---------------------------------------------------------------------------------
              Anisotropic Spin Dipole Couplings in Principal Axis System
 ---------------------------------------------------------------------------------

       Atom             a.u.   MegaHertz   Gauss  10(-4) cm-1        Axes

              Baa    -0.0804   -11.307    -4.035    -3.772 -0.2551 -0.4868  0.8354
     1 V(51)  Bbb    -0.0775   -10.900    -3.889    -3.636  0.7712 -0.6236 -0.1279
              Bcc     0.1580    22.207     7.924     7.407  0.5832  0.6117  0.5345
 
              Baa    -0.0452     3.270     1.167     1.091  0.0337 -0.6708  0.7409
     2 O(17)  Bbb     0.0198    -1.435    -0.512    -0.479 -0.4494  0.6519  0.6108
              Bcc     0.0254    -1.834    -0.655    -0.612  0.8927  0.3535  0.2794
 
              Baa    -0.0456     3.301     1.178     1.101 -0.6802  0.0234  0.7326
     3 O(17)  Bbb     0.0203    -1.469    -0.524    -0.490  0.6585 -0.4196  0.6248
              Bcc     0.0253    -1.833    -0.654    -0.611  0.3220  0.9074  0.2700
 
              Baa    -0.0191   -10.188    -3.635    -3.398 -0.2313 -0.3947  0.8892
     4 H(1)   Bbb    -0.0185    -9.856    -3.517    -3.288  0.1095  0.8976  0.4269
              Bcc     0.0376    20.044     7.152     6.686  0.9667 -0.1961  0.1644
 
              Baa    -0.0191   -10.202    -3.640    -3.403 -0.4192 -0.2311  0.8780
     5 H(1)   Bbb    -0.0185    -9.868    -3.521    -3.292  0.8793  0.1376  0.4560
              Bcc     0.0376    20.071     7.162     6.695 -0.2262  0.9631  0.1456
 
              Baa    -0.0192   -10.222    -3.647    -3.410  0.8550 -0.2764 -0.4388
     6 H(1)   Bbb    -0.0185    -9.883    -3.527    -3.297  0.4913  0.1607  0.8560
              Bcc     0.0377    20.105     7.174     6.706  0.1660  0.9475 -0.2732
 
              Baa    -0.0452     3.270     1.167     1.091  0.0337 -0.6708  0.7409
     7 O(17)  Bbb     0.0198    -1.435    -0.512    -0.479 -0.4494  0.6519  0.6108
              Bcc     0.0254    -1.834    -0.655    -0.612  0.8927  0.3535  0.2794
 
              Baa    -0.0456     3.301     1.178     1.101 -0.6802  0.0234  0.7326
     8 O(17)  Bbb     0.0203    -1.469    -0.524    -0.490  0.6585 -0.4196  0.6248
              Bcc     0.0253    -1.833    -0.654    -0.611  0.3220  0.9074  0.2700
 
              Baa    -0.0455     3.294     1.175     1.099  0.7163 -0.6977  0.0095
     9 O(17)  Bbb     0.0187    -1.356    -0.484    -0.452 -0.5658 -0.5728  0.5931
              Bcc     0.0268    -1.938    -0.691    -0.646  0.4084  0.4302  0.8051
 
              Baa    -0.0455     3.294     1.175     1.099  0.7163 -0.6977  0.0095
    10 O(17)  Bbb     0.0187    -1.356    -0.484    -0.452 -0.5658 -0.5728  0.5931
              Bcc     0.0268    -1.938    -0.691    -0.646  0.4084  0.4302  0.8051
 
              Baa    -0.0191   -10.190    -3.636    -3.399 -0.2934  0.8371 -0.4618
    11 H(1)   Bbb    -0.0185    -9.856    -3.517    -3.287  0.1305  0.5136  0.8481
              Bcc     0.0376    20.046     7.153     6.687  0.9471  0.1885 -0.2599
 
              Baa    -0.0191   -10.188    -3.635    -3.398 -0.2313 -0.3947  0.8892
    12 H(1)   Bbb    -0.0185    -9.856    -3.517    -3.288  0.1095  0.8976  0.4269
              Bcc     0.0376    20.044     7.152     6.686  0.9667 -0.1961  0.1644
 
              Baa    -0.0191   -10.190    -3.636    -3.399 -0.2934  0.8371 -0.4618
    13 H(1)   Bbb    -0.0185    -9.856    -3.517    -3.287  0.1305  0.5136  0.8481
              Bcc     0.0376    20.046     7.153     6.687  0.9471  0.1885 -0.2599
 
              Baa    -0.0191   -10.202    -3.640    -3.403 -0.4192 -0.2311  0.8780
    14 H(1)   Bbb    -0.0185    -9.868    -3.521    -3.292  0.8793  0.1376  0.4560
              Bcc     0.0376    20.071     7.162     6.695 -0.2262  0.9631  0.1456
 
              Baa    -0.0192   -10.222    -3.647    -3.410  0.8550 -0.2764 -0.4388
    15 H(1)   Bbb    -0.0185    -9.883    -3.527    -3.297  0.4913  0.1607  0.8560
              Bcc     0.0377    20.105     7.174     6.706  0.1660  0.9475 -0.2732
 
              Baa    -0.0191   -10.199    -3.639    -3.402 -0.4531  0.8424 -0.2917
    16 H(1)   Bbb    -0.0185    -9.863    -3.519    -3.290  0.8712  0.4878  0.0552
              Bcc     0.0376    20.062     7.159     6.692 -0.1888  0.2291  0.9549
 
              Baa    -0.0191   -10.212    -3.644    -3.406  0.8660 -0.4178 -0.2746
    17 H(1)   Bbb    -0.0185    -9.876    -3.524    -3.294  0.4478  0.8925  0.0543
              Bcc     0.0376    20.088     7.168     6.701  0.2224 -0.1700  0.9600
 
              Baa    -0.0191   -10.199    -3.639    -3.402 -0.4531  0.8424 -0.2917
    18 H(1)   Bbb    -0.0185    -9.863    -3.519    -3.290  0.8712  0.4878  0.0552
              Bcc     0.0376    20.062     7.159     6.692 -0.1888  0.2291  0.9549
 
              Baa    -0.0191   -10.212    -3.644    -3.406  0.8660 -0.4178 -0.2746
    19 H(1)   Bbb    -0.0185    -9.876    -3.524    -3.294  0.4478  0.8925  0.0543
              Bcc     0.0376    20.088     7.168     6.701  0.2224 -0.1700  0.9600
 

 ---------------------------------------------------------------------------------

 Calling FoFJK, ICntrl=      2127 FMM=F ISym2X=1 I1Cent= 0 IOpClX= 1 NMat=1 NMatS=1 NMatT=0.
 ***** Axes restored to original set *****
 -------------------------------------------------------------------
 Center     Atomic                   Forces (Hartrees/Bohr)
 Number     Number              X              Y              Z
 -------------------------------------------------------------------
      1       23           0.000000000    0.000000000    0.000000000
      2        8           0.000123689   -0.000053867   -0.000455396
      3        8           0.000143147    0.000051628    0.000277996
      4        1           0.000044657    0.000008699    0.000100782
      5        1          -0.000023722   -0.000018541    0.000055153
      6        1           0.000047521    0.000094163   -0.000026561
      7        8          -0.000123689    0.000053867    0.000455396
      8        8          -0.000143147   -0.000051628   -0.000277996
      9        8          -0.000011263    0.000084600   -0.000277300
     10        8           0.000011263   -0.000084600    0.000277300
     11        1          -0.000098233    0.000000187   -0.000007897
     12        1          -0.000044657   -0.000008699   -0.000100782
     13        1           0.000098233   -0.000000187    0.000007897
     14        1           0.000023722    0.000018541   -0.000055153
     15        1          -0.000047521   -0.000094163    0.000026561
     16        1          -0.000016291    0.000015815   -0.000014223
     17        1           0.000098883   -0.000029619    0.000023475
     18        1           0.000016291   -0.000015815    0.000014223
     19        1          -0.000098883    0.000029619   -0.000023475
 -------------------------------------------------------------------
 Cartesian Forces:  Max     0.000455396 RMS     0.000127023

 GradGradGradGradGradGradGradGradGradGradGradGradGradGradGradGradGradGrad
 Berny optimization.
 FormGI is forming the generalized inverse of G from B-inverse, IUseBI=4.
 Internal  Forces:  Max     0.000260973 RMS     0.000074839
 Search for a local minimum.
 Step number   1 out of a maximum of  114
 All quantities printed in internal units (Hartrees-Bohrs-Radians)
 Mixed Optimization -- En-DIIS/RFO-DIIS
 Second derivative matrix not updated -- first step.
 ITU=  0
     Eigenvalues ---    0.00230   0.00230   0.00230   0.00230   0.00230
     Eigenvalues ---    0.00230   0.00302   0.00302   0.00302   0.00302
     Eigenvalues ---    0.00310   0.00310   0.04845   0.04848   0.04848
     Eigenvalues ---    0.07083   0.07083   0.07092   0.09730   0.09730
     Eigenvalues ---    0.09790   0.09790   0.09790   0.09790   0.10259
     Eigenvalues ---    0.13795   0.13824   0.16000   0.16000   0.16000
     Eigenvalues ---    0.16000   0.16000   0.16000   0.16000   0.16000
     Eigenvalues ---    0.16000   0.16000   0.16000   0.16000   0.54649
     Eigenvalues ---    0.54649   0.54649   0.54649   0.54656   0.54656
     Eigenvalues ---    0.54656   0.54656   0.54670   0.54670   0.54670
     Eigenvalues ---    0.54670
 RFO step:  Lambda=-1.13302491D-05 EMin= 2.30000000D-03
 Linear search not attempted -- first point.
 Iteration  1 RMS(Cart)=  0.00235775 RMS(Int)=  0.00000880
 Iteration  2 RMS(Cart)=  0.00000676 RMS(Int)=  0.00000492
 Iteration  3 RMS(Cart)=  0.00000000 RMS(Int)=  0.00000492
 ClnCor:  largest displacement from symmetrization is 1.30D-08 for atom    12.
 Variable       Old X    -DE/DX   Delta X   Delta X   Delta X     New X
                                 (Linear)    (Quad)   (Total)
    R1        4.08457  -0.00010   0.00000  -0.00100  -0.00100   4.08357
    R2        4.07919   0.00009   0.00000   0.00094   0.00094   4.08013
    R3        4.08457  -0.00010   0.00000  -0.00100  -0.00100   4.08357
    R4        4.07919   0.00009   0.00000   0.00094   0.00094   4.08013
    R5        4.07919   0.00026   0.00000   0.00267   0.00267   4.08185
    R6        4.07919   0.00026   0.00000   0.00267   0.00267   4.08185
    R7        1.82145  -0.00013   0.00000  -0.00023  -0.00023   1.82122
    R8        1.82145   0.00008   0.00000   0.00016   0.00016   1.82160
    R9        1.82126   0.00001   0.00000   0.00002   0.00002   1.82129
   R10        1.82139   0.00011   0.00000   0.00020   0.00020   1.82158
   R11        1.82145  -0.00013   0.00000  -0.00023  -0.00023   1.82122
   R12        1.82145   0.00008   0.00000   0.00016   0.00016   1.82160
   R13        1.82126   0.00001   0.00000   0.00002   0.00002   1.82129
   R14        1.82139   0.00011   0.00000   0.00020   0.00020   1.82158
   R15        1.82126   0.00000   0.00000   0.00000   0.00000   1.82126
   R16        1.82139  -0.00008   0.00000  -0.00015  -0.00015   1.82123
   R17        1.82126   0.00000   0.00000   0.00000   0.00000   1.82126
   R18        1.82139  -0.00008   0.00000  -0.00015  -0.00015   1.82123
    A1        1.47988   0.00004   0.00000   0.00057   0.00057   1.48044
    A2        1.66172  -0.00004   0.00000  -0.00057  -0.00057   1.66115
    A3        1.66172  -0.00013   0.00000  -0.00119  -0.00119   1.66053
    A4        1.47988   0.00013   0.00000   0.00119   0.00119   1.48107
    A5        1.66172  -0.00004   0.00000  -0.00057  -0.00057   1.66115
    A6        1.47803   0.00013   0.00000   0.00118   0.00119   1.47921
    A7        1.66357  -0.00013   0.00000  -0.00118  -0.00119   1.66238
    A8        1.47988   0.00004   0.00000   0.00057   0.00057   1.48044
    A9        1.47988   0.00013   0.00000   0.00119   0.00119   1.48107
   A10        1.66172  -0.00013   0.00000  -0.00119  -0.00119   1.66053
   A11        1.66357  -0.00013   0.00000  -0.00118  -0.00119   1.66238
   A12        1.47803   0.00013   0.00000   0.00118   0.00119   1.47921
   A13        2.19774   0.00006   0.00000   0.00108   0.00107   2.19881
   A14        2.19774   0.00001   0.00000   0.00076   0.00075   2.19849
   A15        1.85477  -0.00006   0.00000   0.00031   0.00030   1.85507
   A16        2.20054  -0.00005   0.00000   0.00024   0.00023   2.20077
   A17        2.19784   0.00005   0.00000   0.00086   0.00085   2.19869
   A18        1.85482   0.00000   0.00000   0.00052   0.00051   1.85533
   A19        2.19774   0.00006   0.00000   0.00108   0.00107   2.19881
   A20        2.19774   0.00001   0.00000   0.00076   0.00075   2.19849
   A21        1.85477  -0.00006   0.00000   0.00031   0.00030   1.85507
   A22        2.20054  -0.00005   0.00000   0.00024   0.00023   2.20077
   A23        2.19784   0.00005   0.00000   0.00086   0.00085   2.19869
   A24        1.85482   0.00000   0.00000   0.00052   0.00051   1.85533
   A25        2.20054   0.00000   0.00000  -0.00079  -0.00080   2.19974
   A26        2.19784   0.00002   0.00000  -0.00062  -0.00064   2.19721
   A27        1.85482  -0.00003   0.00000  -0.00097  -0.00099   1.85383
   A28        2.20054   0.00000   0.00000  -0.00079  -0.00080   2.19974
   A29        2.19784   0.00002   0.00000  -0.00062  -0.00064   2.19721
   A30        1.85482  -0.00003   0.00000  -0.00097  -0.00099   1.85383
   A31        3.14159   0.00000   0.00000   0.00000   0.00000   3.14159
   A32        3.14159   0.00000   0.00000   0.00000   0.00000   3.14159
   A33        3.14159   0.00000   0.00000   0.00000   0.00000   3.14159
   A34        3.14159   0.00000   0.00000   0.00000   0.00000   3.14159
   A35        3.14159   0.00000   0.00000   0.00000   0.00000   3.14159
   A36        3.14159   0.00000   0.00000   0.00000   0.00000   3.14159
    D1        0.88994   0.00005   0.00000  -0.00604  -0.00604   0.88390
    D2       -2.56263   0.00009   0.00000   0.00394   0.00394  -2.55868
    D3       -2.25166   0.00005   0.00000  -0.00604  -0.00604  -2.25770
    D4        0.57897   0.00009   0.00000   0.00394   0.00394   0.58291
    D5       -0.57897  -0.00009   0.00000  -0.00741  -0.00741  -0.58638
    D6        2.25166  -0.00006   0.00000   0.00257   0.00257   2.25423
    D7        2.56263  -0.00009   0.00000  -0.00741  -0.00741   2.55522
    D8       -0.88994  -0.00006   0.00000   0.00257   0.00257  -0.88736
    D9        3.14159   0.00000   0.00000   0.00000   0.00000   3.14159
   D10        0.31097  -0.00003   0.00000  -0.00998  -0.00998   0.30099
   D11       -0.31097   0.00003   0.00000   0.00998   0.00998  -0.30099
   D12        3.14159   0.00000   0.00000   0.00000   0.00000   3.14159
   D13        0.88251   0.00007   0.00000  -0.00042  -0.00042   0.88209
   D14       -2.55607   0.00009   0.00000   0.00748   0.00748  -2.54859
   D15       -2.25908   0.00007   0.00000  -0.00042  -0.00042  -2.25950
   D16        0.58552   0.00009   0.00000   0.00748   0.00748   0.59300
   D17        2.55352  -0.00008   0.00000  -0.00180  -0.00180   2.55172
   D18       -0.88506  -0.00006   0.00000   0.00611   0.00611  -0.87896
   D19       -0.58807  -0.00008   0.00000  -0.00180  -0.00180  -0.58987
   D20        2.25653  -0.00006   0.00000   0.00611   0.00611   2.26264
   D21        3.14159   0.00000   0.00000   0.00000   0.00000   3.14159
   D22        0.29699  -0.00002   0.00000  -0.00790  -0.00791   0.28909
   D23       -0.29699   0.00002   0.00000   0.00790   0.00791  -0.28909
   D24        3.14159   0.00000   0.00000   0.00000   0.00000   3.14159
   D25        2.25166  -0.00005   0.00000   0.00604   0.00604   2.25770
   D26       -0.57897  -0.00009   0.00000  -0.00394  -0.00394  -0.58291
   D27       -0.88994  -0.00005   0.00000   0.00604   0.00604  -0.88390
   D28        2.56263  -0.00009   0.00000  -0.00394  -0.00394   2.55868
   D29       -2.56263   0.00009   0.00000   0.00741   0.00741  -2.55522
   D30        0.88994   0.00006   0.00000  -0.00257  -0.00257   0.88736
   D31        0.57897   0.00009   0.00000   0.00741   0.00741   0.58638
   D32       -2.25166   0.00006   0.00000  -0.00257  -0.00257  -2.25423
   D33        2.25908  -0.00007   0.00000   0.00042   0.00042   2.25950
   D34       -0.58552  -0.00009   0.00000  -0.00748  -0.00748  -0.59300
   D35       -0.88251  -0.00007   0.00000   0.00042   0.00042  -0.88209
   D36        2.55607  -0.00009   0.00000  -0.00748  -0.00748   2.54859
   D37        0.58807   0.00008   0.00000   0.00180   0.00180   0.58987
   D38       -2.25653   0.00006   0.00000  -0.00611  -0.00611  -2.26264
   D39       -2.55352   0.00008   0.00000   0.00180   0.00180  -2.55172
   D40        0.88506   0.00006   0.00000  -0.00611  -0.00611   0.87896
   D41       -2.25908   0.00006   0.00000   0.00814   0.00814  -2.25093
   D42        0.58552   0.00002   0.00000  -0.00355  -0.00355   0.58197
   D43        2.55352  -0.00001   0.00000   0.00733   0.00733   2.56086
   D44       -0.88506  -0.00005   0.00000  -0.00437  -0.00437  -0.88943
   D45        0.88251   0.00006   0.00000   0.00814   0.00814   0.89066
   D46       -2.55607   0.00002   0.00000  -0.00355  -0.00355  -2.55963
   D47       -0.58807  -0.00001   0.00000   0.00733   0.00733  -0.58074
   D48        2.25653  -0.00005   0.00000  -0.00437  -0.00437   2.25216
   D49        3.14159   0.00000   0.00000   0.00000   0.00000   3.14159
   D50        0.29699   0.00004   0.00000   0.01170   0.01170   0.30869
   D51       -0.29699  -0.00004   0.00000  -0.01170  -0.01170  -0.30869
   D52        3.14159   0.00000   0.00000   0.00000   0.00000  -3.14159
   D53       -0.88251  -0.00006   0.00000  -0.00814  -0.00814  -0.89066
   D54        2.55607  -0.00002   0.00000   0.00355   0.00355   2.55963
   D55        0.58807   0.00001   0.00000  -0.00733  -0.00733   0.58074
   D56       -2.25653   0.00005   0.00000   0.00437   0.00437  -2.25216
   D57        2.25908  -0.00006   0.00000  -0.00814  -0.00814   2.25093
   D58       -0.58552  -0.00002   0.00000   0.00355   0.00355  -0.58197
   D59       -2.55352   0.00001   0.00000  -0.00733  -0.00733  -2.56086
   D60        0.88506   0.00005   0.00000   0.00437   0.00437   0.88943
         Item               Value     Threshold  Converged?
 Maximum Force            0.000261     0.000450     YES
 RMS     Force            0.000075     0.000300     YES
 Maximum Displacement     0.006993     0.001800     NO 
 RMS     Displacement     0.002358     0.001200     NO 
[...]
    10  O    0.000499   0.001745   0.008053  -0.000183  -0.000193   0.260048
    11  H    0.000112   0.000528   0.000520   0.000514   0.000596   0.000462
    12  H   -0.002871   0.000535   0.000485   0.000589   0.000512   0.000543
    13  H    0.399870   0.000522   0.000524   0.000462   0.000547   0.000514
    14  H    0.000522   0.400430  -0.002728   0.000501   0.000491   0.000529
    15  H    0.000524  -0.002728   0.401110   0.000526   0.000526   0.000543
    16  H    0.000462   0.000501   0.000526   0.400143  -0.002400   0.000109
    17  H    0.000547   0.000491   0.000526  -0.002400   0.400344  -0.000023
    18  H    0.000514   0.000529   0.000543   0.000109  -0.000023   0.400143
    19  H    0.000596   0.000528   0.000543  -0.000023   0.000109  -0.002400
              19
     1  V   -0.013243
     2  O    0.001835
     3  O    0.000569
     4  H    0.000512
     5  H    0.000491
     6  H    0.000526
     7  O    0.007466
     8  O    0.000845
     9  O   -0.000193
    10  O    0.259734
    11  H    0.000547
    12  H    0.000467
    13  H    0.000596
    14  H    0.000528
    15  H    0.000543
    16  H   -0.000023
    17  H    0.000109
    18  H   -0.002400
    19  H    0.400344
          Atomic-Atomic Spin Densities.
               1          2          3          4          5          6
     1  V    3.296488  -0.031286  -0.031132  -0.001062  -0.001103  -0.001206
     2  O   -0.031286  -0.015683   0.007119   0.003551   0.000070   0.000115
     3  O   -0.031132   0.007119  -0.015088  -0.001142   0.003791   0.003197
     4  H   -0.001062   0.003551  -0.001142   0.000594  -0.000076  -0.000069
     5  H   -0.001103   0.000070   0.003791  -0.000076  -0.000191  -0.000909
     6  H   -0.001206   0.000115   0.003197  -0.000069  -0.000909   0.000382
     7  O   -0.031286  -0.003430   0.007074   0.000075   0.000077   0.000136
     8  O   -0.031132   0.007074  -0.003216   0.000166   0.000099   0.000069
     9  O   -0.033411   0.006959   0.007036   0.000111   0.000226  -0.001118
    10  O   -0.033411   0.006710   0.005851   0.000196  -0.001037   0.000198
    11  H   -0.001042   0.003570   0.000168  -0.000986  -0.000020  -0.000023
    12  H   -0.001062   0.000075   0.000166   0.000010  -0.000021  -0.000019
    13  H   -0.001042   0.000073  -0.001129  -0.000052  -0.000074  -0.000078
    14  H   -0.001103   0.000077   0.000099  -0.000021   0.000009  -0.000053
    15  H   -0.001206   0.000136   0.000069  -0.000019  -0.000053   0.000009
    16  H   -0.001085   0.000142   0.000058  -0.000035  -0.000027  -0.000060
    17  H   -0.001098  -0.001228   0.000073  -0.000042  -0.000025  -0.000062
    18  H   -0.001085  -0.001196   0.000188  -0.000094  -0.000086  -0.000020
    19  H   -0.001098   0.000134   0.000190  -0.000011  -0.000082  -0.000020
               7          8          9         10         11         12
     1  V   -0.031286  -0.031132  -0.033411  -0.033411  -0.001042  -0.001062
     2  O   -0.003430   0.007074   0.006959   0.006710   0.003570   0.000075
     3  O    0.007074  -0.003216   0.007036   0.005851   0.000168   0.000166
     4  H    0.000075   0.000166   0.000111   0.000196  -0.000986   0.000010
     5  H    0.000077   0.000099   0.000226  -0.001037  -0.000020  -0.000021
     6  H    0.000136   0.000069  -0.001118   0.000198  -0.000023  -0.000019
     7  O   -0.015683   0.007119   0.006710   0.006959   0.000073   0.003551
     8  O    0.007119  -0.015088   0.005851   0.007036  -0.001129  -0.001142
     9  O    0.006710   0.005851  -0.013710  -0.003124   0.000169   0.000196
    10  O    0.006959   0.007036  -0.003124  -0.013710   0.000149   0.000111
    11  H    0.000073  -0.001129   0.000169   0.000149   0.000553  -0.000052
    12  H    0.003551  -0.001142   0.000196   0.000111  -0.000052   0.000594
    13  H    0.003570   0.000168   0.000149   0.000169   0.000010  -0.000986
    14  H    0.000070   0.003791  -0.001037   0.000226  -0.000074  -0.000076
    15  H    0.000115   0.003197   0.000198  -0.001118  -0.000078  -0.000069
    16  H   -0.001196   0.000188   0.003681   0.000092  -0.000013  -0.000094
    17  H    0.000134   0.000190   0.003644   0.000089  -0.000090  -0.000011
    18  H    0.000142   0.000058   0.000092   0.003681  -0.000051  -0.000035
    19  H   -0.001228   0.000073   0.000089   0.003644  -0.000035  -0.000042
              13         14         15         16         17         18
     1  V   -0.001042  -0.001103  -0.001206  -0.001085  -0.001098  -0.001085
     2  O    0.000073   0.000077   0.000136   0.000142  -0.001228  -0.001196
     3  O   -0.001129   0.000099   0.000069   0.000058   0.000073   0.000188
     4  H   -0.000052  -0.000021  -0.000019  -0.000035  -0.000042  -0.000094
     5  H   -0.000074   0.000009  -0.000053  -0.000027  -0.000025  -0.000086
     6  H   -0.000078  -0.000053   0.000009  -0.000060  -0.000062  -0.000020
     7  O    0.003570   0.000070   0.000115  -0.001196   0.000134   0.000142
     8  O    0.000168   0.003791   0.003197   0.000188   0.000190   0.000058
     9  O    0.000149  -0.001037   0.000198   0.003681   0.003644   0.000092
    10  O    0.000169   0.000226  -0.001118   0.000092   0.000089   0.003681
    11  H    0.000010  -0.000074  -0.000078  -0.000013  -0.000090  -0.000051
    12  H   -0.000986  -0.000076  -0.000069  -0.000094  -0.000011  -0.000035
    13  H    0.000553  -0.000020  -0.000023  -0.000051  -0.000035  -0.000013
    14  H   -0.000020  -0.000191  -0.000909  -0.000086  -0.000082  -0.000027
    15  H   -0.000023  -0.000909   0.000382  -0.000020  -0.000020  -0.000060
    16  H   -0.000051  -0.000086  -0.000020   0.000455  -0.000951   0.000007
    17  H   -0.000035  -0.000082  -0.000020  -0.000951   0.000489  -0.000051
    18  H   -0.000013  -0.000027  -0.000060   0.000007  -0.000051   0.000455
    19  H   -0.000090  -0.000025  -0.000062  -0.000051   0.000007  -0.000951
              19
     1  V   -0.001098
     2  O    0.000134
     3  O    0.000190
     4  H   -0.000011
     5  H   -0.000082
     6  H   -0.000020
     7  O   -0.001228
     8  O    0.000073
     9  O    0.000089
    10  O    0.003644
    11  H   -0.000035
    12  H   -0.000042
    13  H   -0.000090
    14  H   -0.000025
    15  H   -0.000062
    16  H   -0.000051
    17  H    0.000007
    18  H   -0.000951
    19  H    0.000489
 Mulliken charges and spin densities:
               1          2
     1  V    0.936714   3.091639
     2  O   -0.505286  -0.017018
     3  O   -0.504138  -0.016628
     4  H    0.341055   0.001095
     5  H    0.339769   0.000566
     6  H    0.340797   0.000470
     7  O   -0.505286  -0.017018
     8  O   -0.504138  -0.016628
     9  O   -0.503223  -0.017291
    10  O   -0.503223  -0.017291
    11  H    0.341255   0.001100
    12  H    0.341055   0.001095
    13  H    0.341255   0.001100
    14  H    0.339769   0.000566
    15  H    0.340797   0.000470
    16  H    0.340666   0.000955
    17  H    0.340748   0.000931
    18  H    0.340666   0.000955
    19  H    0.340748   0.000931
 Sum of Mulliken charges =   2.00000   3.00000
 Mulliken charges and spin densities with hydrogens summed into heavy atoms:
               1          2
     1  V    0.936714   3.091639
     2  O    0.177025  -0.014822
     3  O    0.176428  -0.015592
     7  O    0.177025  -0.014822
     8  O    0.176428  -0.015592
     9  O    0.178190  -0.015405
    10  O    0.178190  -0.015405
 Electronic spatial extent (au):  <R**2>=           1170.0973
 Charge=              2.0000 electrons
 Dipole moment (field-independent basis, Debye):
    X=              0.0000    Y=              0.0000    Z=              0.0000  Tot=              0.0000
 Quadrupole moment (field-independent basis, Debye-Ang):
   XX=            -15.3168   YY=            -15.3030   ZZ=            -15.3907
   XY=              0.0138   XZ=             -0.0414   YZ=              0.1565
 Traceless Quadrupole moment (field-independent basis, Debye-Ang):
   XX=              0.0201   YY=              0.0338   ZZ=             -0.0539
   XY=              0.0138   XZ=             -0.0414   YZ=              0.1565
 Octapole moment (field-independent basis, Debye-Ang**2):
  XXX=              0.0000  YYY=              0.0000  ZZZ=              0.0000  XYY=              0.0000
  XXY=              0.0000  XXZ=              0.0000  XZZ=              0.0000  YZZ=              0.0000
  YYZ=              0.0000  XYZ=              0.0000
 Hexadecapole moment (field-independent basis, Debye-Ang**3):
 XXXX=           -111.1161 YYYY=           -112.0915 ZZZZ=           -115.2465 XXXY=             -1.2844
 XXXZ=             -2.7580 YYYX=              0.9806 YYYZ=            -10.5735 ZZZX=              1.4777
 ZZZY=             19.9326 XXYY=           -107.2410 XXZZ=           -107.1924 YYZZ=           -104.9744
 XXYZ=              0.3669 YYXZ=             -0.0719 ZZXY=              0.0606
 N-N= 6.112274090564D+02 E-N=-4.519710209627D+03  KE= 1.399776494492D+03
 Symmetry AG   KE= 8.574906083885D+02
 Symmetry AU   KE= 5.422858861040D+02
                          Isotropic Fermi Contact Couplings
        Atom                 a.u.       MegaHertz       Gauss      10(-4) cm-1
     1  V(51)             -0.66416    -260.75373     -93.04341     -86.97808
     2  O(17)             -0.01292       2.61089       0.93163       0.87090
     3  O(17)             -0.01462       2.95441       1.05421       0.98549
     4  H(1)               0.00095       1.41705       0.50564       0.47268
     5  H(1)               0.00088       1.30818       0.46679       0.43636
     6  H(1)               0.00095       1.41857       0.50618       0.47318
     7  O(17)             -0.01292       2.61089       0.93163       0.87090
     8  O(17)             -0.01462       2.95441       1.05421       0.98549
     9  O(17)             -0.01282       2.59102       0.92454       0.86427
    10  O(17)             -0.01282       2.59102       0.92454       0.86427
    11  H(1)               0.00095       1.42010       0.50673       0.47369
    12  H(1)               0.00095       1.41705       0.50564       0.47268
    13  H(1)               0.00095       1.42010       0.50673       0.47369
    14  H(1)               0.00088       1.30818       0.46679       0.43636
    15  H(1)               0.00095       1.41857       0.50618       0.47318
    16  H(1)               0.00096       1.43524       0.51213       0.47875
    17  H(1)               0.00097       1.44980       0.51733       0.48360
    18  H(1)               0.00096       1.43524       0.51213       0.47875
    19  H(1)               0.00097       1.44980       0.51733       0.48360
 --------------------------------------------------------
       Center         ----  Spin Dipole Couplings  ----
                      3XX-RR        3YY-RR        3ZZ-RR
 --------------------------------------------------------
     1   Atom       -0.002345      0.002652     -0.000307
     2   Atom        0.022816     -0.050664      0.027849
     3   Atom        0.028633      0.021713     -0.050346
     4   Atom        0.032794     -0.014152     -0.018642
     5   Atom       -0.018328      0.034707     -0.016378
     6   Atom       -0.018864      0.030449     -0.011585
     7   Atom        0.022816     -0.050664      0.027849
     8   Atom        0.028633      0.021713     -0.050346
     9   Atom       -0.051135      0.027980      0.023155
    10   Atom       -0.051135      0.027980      0.023155
    11   Atom        0.033050     -0.014450     -0.018600
    12   Atom        0.032794     -0.014152     -0.018642
    13   Atom        0.033050     -0.014450     -0.018600
    14   Atom       -0.018328      0.034707     -0.016378
    15   Atom       -0.018864      0.030449     -0.011585
    16   Atom       -0.014614     -0.018388      0.033002
    17   Atom       -0.013970     -0.018502      0.032472
    18   Atom       -0.014614     -0.018388      0.033002
    19   Atom       -0.013970     -0.018502      0.032472
 --------------------------------------------------------
                        XY            XZ            YZ
 --------------------------------------------------------
     1   Atom       -0.000560     -0.001368      0.011797
     2   Atom       -0.000307     -0.000075      0.006807
     3   Atom        0.000030     -0.000926     -0.004733
     4   Atom       -0.016180      0.000897     -0.000226
     5   Atom        0.000444      0.000090      0.011850
     6   Atom        0.000053     -0.000031     -0.019688
     7   Atom       -0.000307     -0.000075      0.006807
     8   Atom        0.000030     -0.000926     -0.004733
     9   Atom        0.000422      0.000593     -0.000065
    10   Atom        0.000422      0.000593     -0.000065
    11   Atom        0.015744     -0.001887     -0.000510
    12   Atom       -0.016180      0.000897     -0.000226
    13   Atom        0.015744     -0.001887     -0.000510
    14   Atom        0.000444      0.000090      0.011850
    15   Atom        0.000053     -0.000031     -0.019688
    16   Atom       -0.001079     -0.015472      0.003715
    17   Atom        0.001112      0.016544      0.003514
    18   Atom       -0.001079     -0.015472      0.003715
    19   Atom        0.001112      0.016544      0.003514
 --------------------------------------------------------


 ---------------------------------------------------------------------------------
              Anisotropic Spin Dipole Couplings in Principal Axis System
 ---------------------------------------------------------------------------------

       Atom             a.u.   MegaHertz   Gauss  10(-4) cm-1        Axes

              Baa    -0.0108    -1.514    -0.540    -0.505  0.0782 -0.6564  0.7504
     1 V(51)  Bbb    -0.0024    -0.338    -0.121    -0.113  0.9933  0.1156 -0.0024
              Bcc     0.0132     1.852     0.661     0.618 -0.0851  0.7455  0.6610
 
              Baa    -0.0513     3.709     1.323     1.237  0.0040  0.9963 -0.0857
     2 O(17)  Bbb     0.0228    -1.651    -0.589    -0.551  0.9998 -0.0025  0.0182
              Bcc     0.0284    -2.058    -0.734    -0.686 -0.0179  0.0858  0.9962
 
              Baa    -0.0507     3.666     1.308     1.223  0.0116  0.0652  0.9978
     3 O(17)  Bbb     0.0220    -1.593    -0.569    -0.532 -0.0137  0.9978 -0.0651
              Bcc     0.0286    -2.073    -0.740    -0.691  0.9998  0.0129 -0.0125
 
              Baa    -0.0192   -10.240    -3.654    -3.416  0.2973  0.9501 -0.0939
     4 H(1)   Bbb    -0.0187    -9.952    -3.551    -3.320  0.0124  0.0945  0.9954
              Bcc     0.0378    20.192     7.205     6.735  0.9547 -0.2971  0.0163
 
              Baa    -0.0190   -10.134    -3.616    -3.380  0.0122 -0.2156  0.9764
     5 H(1)   Bbb    -0.0183    -9.781    -3.490    -3.263  0.9999 -0.0053 -0.0137
              Bcc     0.0373    19.915     7.106     6.643  0.0081  0.9765  0.2155
 
              Baa    -0.0194   -10.333    -3.687    -3.447  0.0180  0.3675  0.9299
     6 H(1)   Bbb    -0.0189   -10.065    -3.591    -3.357  0.9998 -0.0076 -0.0163
              Bcc     0.0382    20.398     7.279     6.804  0.0011  0.9300 -0.3676
 
              Baa    -0.0513     3.709     1.323     1.237  0.0040  0.9963 -0.0857
     7 O(17)  Bbb     0.0228    -1.651    -0.589    -0.551  0.9998 -0.0025  0.0182
              Bcc     0.0284    -2.058    -0.734    -0.686 -0.0179  0.0858  0.9962
 
              Baa    -0.0507     3.666     1.308     1.223  0.0116  0.0652  0.9978
     8 O(17)  Bbb     0.0220    -1.593    -0.569    -0.532 -0.0137  0.9978 -0.0651
              Bcc     0.0286    -2.073    -0.740    -0.691  0.9998  0.0129 -0.0125
 
              Baa    -0.0511     3.701     1.320     1.234  1.0000 -0.0053 -0.0080
     9 O(17)  Bbb     0.0232    -1.676    -0.598    -0.559  0.0081  0.0128  0.9999
              Bcc     0.0280    -2.025    -0.723    -0.675  0.0052  0.9999 -0.0129
 
              Baa    -0.0511     3.701     1.320     1.234  1.0000 -0.0053 -0.0080
    10 O(17)  Bbb     0.0232    -1.676    -0.598    -0.559  0.0081  0.0128  0.9999
              Bcc     0.0280    -2.025    -0.723    -0.675  0.0052  0.9999 -0.0129
 
              Baa    -0.0192   -10.244    -3.655    -3.417 -0.2904  0.9512 -0.1042
    11 H(1)   Bbb    -0.0187    -9.957    -3.553    -3.321  0.0028  0.1098  0.9939
              Bcc     0.0379    20.202     7.208     6.739  0.9569  0.2883 -0.0346
 
              Baa    -0.0192   -10.240    -3.654    -3.416  0.2973  0.9501 -0.0939
    12 H(1)   Bbb    -0.0187    -9.952    -3.551    -3.320  0.0124  0.0945  0.9954
              Bcc     0.0378    20.192     7.205     6.735  0.9547 -0.2971  0.0163
 
              Baa    -0.0192   -10.244    -3.655    -3.417 -0.2904  0.9512 -0.1042
    13 H(1)   Bbb    -0.0187    -9.957    -3.553    -3.321  0.0028  0.1098  0.9939
              Bcc     0.0379    20.202     7.208     6.739  0.9569  0.2883 -0.0346
 
              Baa    -0.0190   -10.134    -3.616    -3.380  0.0122 -0.2156  0.9764
    14 H(1)   Bbb    -0.0183    -9.781    -3.490    -3.263  0.9999 -0.0053 -0.0137
              Bcc     0.0373    19.915     7.106     6.643  0.0081  0.9765  0.2155
 
              Baa    -0.0194   -10.333    -3.687    -3.447  0.0180  0.3675  0.9299
    15 H(1)   Bbb    -0.0189   -10.065    -3.591    -3.357  0.9998 -0.0076 -0.0163
              Bcc     0.0382    20.398     7.279     6.804  0.0011  0.9300 -0.3676
 
              Baa    -0.0192   -10.244    -3.655    -3.417  0.9573 -0.0383  0.2865
    16 H(1)   Bbb    -0.0187    -9.953    -3.551    -3.320  0.0563  0.9969 -0.0548
              Bcc     0.0379    20.197     7.207     6.737 -0.2835  0.0686  0.9565
 
              Baa    -0.0193   -10.277    -3.667    -3.428  0.9518  0.0215 -0.3058
    17 H(1)   Bbb    -0.0187   -10.000    -3.568    -3.336 -0.0404  0.9976 -0.0554
              Bcc     0.0380    20.277     7.235     6.764  0.3039  0.0651  0.9505
 
              Baa    -0.0192   -10.244    -3.655    -3.417  0.9573 -0.0383  0.2865
    18 H(1)   Bbb    -0.0187    -9.953    -3.551    -3.320  0.0563  0.9969 -0.0548
              Bcc     0.0379    20.197     7.207     6.737 -0.2835  0.0686  0.9565
 
              Baa    -0.0193   -10.277    -3.667    -3.428  0.9518  0.0215 -0.3058
    19 H(1)   Bbb    -0.0187   -10.000    -3.568    -3.336 -0.0404  0.9976 -0.0554
              Bcc     0.0380    20.277     7.235     6.764  0.3039  0.0651  0.9505
 

 ---------------------------------------------------------------------------------

 1\1\GINC-MN111\FOpt\UM062X\6-311++G(2d,2p)\H12O6V1(2+,4)\DARAM_A\29-Ju
 n-2015\0\\# opt 6-311++g(2d,2p) m062x output=wfnx scf=tight\\V[H2O]6 (
 2+)\\2,4\V,0.,0.,0.\O,-2.1503749877,0.0096725011,0.0149619423\O,0.0106
 479733,2.145641249,-0.1578690086\H,-2.7194899378,0.7855395691,-0.04135
 87403\H,0.0225390782,2.789595672,0.5588590486\H,0.0035977207,2.6400769
 244,-0.985393469\O,2.1503749877,-0.0096725011,-0.0149619423\O,-0.01064
 79733,-2.145641249,0.1578690086\O,-0.0206149375,-0.1138469624,-2.14614
 89989\O,0.0206149375,0.1138469624,2.1461489989\H,-2.7247310592,-0.7603
 682158,0.0928365039\H,2.7194899378,-0.7855395691,0.0413587403\H,2.7247
 310592,0.7603682158,-0.0928365039\H,-0.0225390782,-2.789595672,-0.5588
 590486\H,-0.0035977207,-2.6400769244,0.985393469\H,0.7471764298,-0.193
 9996858,-2.7232064131\H,-0.804185599,-0.1841876471,-2.7030787355\H,-0.
 7471764298,0.1939996858,2.7232064131\H,0.804185599,0.1841876471,2.7030
 787355\\Version=ES64L-G09RevD.01\State=4-AG\HF=-1402.1468742\S2=3.7526
 13\S2-1=0.\S2A=3.750003\RMSD=4.860e-09\RMSF=4.018e-05\Dipole=0.,0.,0.\
 Quadrupole=0.0149114,0.0251609,-0.0400723,0.0102451,-0.0308041,0.11635
 56\PG=CI [O(V1),X(H12O6)]\\@

 Writing a WFNX file to "V24.wfx"


 I am not a vegetarian because I love animals;
 I am a vegetarian because I hate plants.
                               -- A. Whitney Brown
 Job cpu time:       0 days  3 hours 36 minutes 30.8 seconds.
 File lengths (MBytes):  RWF=     95 Int=      0 D2E=      0 Chk=     12 Scr=      1
 Normal termination of Gaussian 09 at Mon Jun 29 13:42:51 2015.
