 Entering Gaussian System, Link 0=g09
 Input=/home/scratch/M_H2O_4_cuadrado_plano/Opt/Mn3_cuadrado_plano_cc-pvtz-def2-tzv_1.gjf
 Output=/home/scratch/M_H2O_4_cuadrado_plano/Opt/Mn3_cuadrado_plano_cc-pvtz-def2-tzv_1.log
 Initial command:
 /opt/g09/l1.exe "/home/scratch/Gau-66249.inp" -scrdir="/home/scratch/"
 Entering Link 1 = /opt/g09/l1.exe PID=     66252.
  
 Copyright (c) 1988,1990,1992,1993,1995,1998,2003,2009,2015,
            Gaussian, Inc.  All Rights Reserved.
  
 This is part of the Gaussian(R) 09 program.  It is based on
 the Gaussian(R) 03 system (copyright 2003, Gaussian, Inc.),
 the Gaussian(R) 98 system (copyright 1998, Gaussian, Inc.),
 the Gaussian(R) 94 system (copyright 1995, Gaussian, Inc.),
 the Gaussian 92(TM) system (copyright 1992, Gaussian, Inc.),
 the Gaussian 90(TM) system (copyright 1990, Gaussian, Inc.),
 the Gaussian 88(TM) system (copyright 1988, Gaussian, Inc.),
 the Gaussian 86(TM) system (copyright 1986, Carnegie Mellon
 University), and the Gaussian 82(TM) system (copyright 1983,
 Carnegie Mellon University). Gaussian is a federally registered
 trademark of Gaussian, Inc.
  
 This software contains proprietary and confidential information,
 including trade secrets, belonging to Gaussian, Inc.
  
 This software is provided under written license and may be
 used, copied, transmitted, or stored only in accord with that
 written license.
  
 The following legend is applicable only to US Government
 contracts under FAR:
  
                    RESTRICTED RIGHTS LEGEND
  
 Use, reproduction and disclosure by the US Government is
 subject to restrictions as set forth in subparagraphs (a)
 and (c) of the Commercial Computer Software - Restricted
 Rights clause in FAR 52.227-19.
  
 Gaussian, Inc.
 340 Quinnipiac St., Bldg. 40, Wallingford CT 06492
  
  
 ---------------------------------------------------------------
 Warning -- This program may not be used in any manner that
 competes with the business of Gaussian, Inc. or will provide
 assistance to any competitor of Gaussian, Inc.  The licensee
 of this program is prohibited from giving any competitor of
 Gaussian, Inc. access to this program.  By using this program,
 the user acknowledges that Gaussian, Inc. is engaged in the
 business of creating and licensing software in the field of
 computational chemistry and represents and warrants to the
 licensee that it is not a competitor of Gaussian, Inc. and that
 it will not use this program in any manner prohibited above.
 ---------------------------------------------------------------
  

 Cite this work as:
 Gaussian 09, Revision E.01,
 M. J. Frisch, G. W. Trucks, H. B. Schlegel, G. E. Scuseria, 
 M. A. Robb, J. R. Cheeseman, G. Scalmani, V. Barone, B. Mennucci, 
 G. A. Petersson, H. Nakatsuji, M. Caricato, X. Li, H. P. Hratchian, 
 A. F. Izmaylov, J. Bloino, G. Zheng, J. L. Sonnenberg, M. Hada, 
 M. Ehara, K. Toyota, R. Fukuda, J. Hasegawa, M. Ishida, T. Nakajima, 
 Y. Honda, O. Kitao, H. Nakai, T. Vreven, J. A. Montgomery, Jr., 
 J. E. Peralta, F. Ogliaro, M. Bearpark, J. J. Heyd, E. Brothers, 
 K. N. Kudin, V. N. Staroverov, T. Keith, R. Kobayashi, J. Normand, 
 K. Raghavachari, A. Rendell, J. C. Burant, S. S. Iyengar, J. Tomasi, 
 M. Cossi, N. Rega, J. M. Millam, M. Klene, J. E. Knox, J. B. Cross, 
 V. Bakken, C. Adamo, J. Jaramillo, R. Gomperts, R. E. Stratmann, 
 O. Yazyev, A. J. Austin, R. Cammi, C. Pomelli, J. W. Ochterski, 
 R. L. Martin, K. Morokuma, V. G. Zakrzewski, G. A. Voth, 
 P. Salvador, J. J. Dannenberg, S. Dapprich, A. D. Daniels, 
 O. Farkas, J. B. Foresman, J. V. Ortiz, J. Cioslowski, 
 and D. J. Fox, Gaussian, Inc., Wallingford CT, 2013.
 
 ******************************************
 Gaussian 09:  EM64L-G09RevE.01 30-Nov-2015
                 8-Aug-2024 
 ******************************************
 %chk=Mn3_cuadrado_plano_cc-pvtz-def2-tzv_1.chk
 -------------------------------------------------------------------
 # opt rpbepbe/cc-pvtz/def2tzv pop=full geom=connectivity output=wfx
 -------------------------------------------------------------------
 1/14=-1,18=20,19=15,26=3,38=1,57=2/1,3;
 2/9=110,12=2,17=6,18=5,40=1/2;
 3/5=16,6=1,11=2,16=1,25=1,30=1,71=1,74=1009,82=44,116=1/1,2,3;
 4//1;
 5/5=2,38=5/2;
 6/7=3,28=1/1;
 7//1,2,3,16;
 1/14=-1,18=20,19=15,26=3/3(2);
 2/9=110/2;
 99/6=200/99;
 2/9=110/2;
 3/5=16,6=1,11=2,16=1,25=1,30=1,71=1,74=1009,82=44,116=1/1,2,3;
 4/5=5,16=3,69=1/1;
 5/5=2,38=5/2;
 7//1,2,3,16;
 1/14=-1,18=20,19=15,26=3/3(-5);
 2/9=110/2;
 6/7=3,19=2,28=1/1;
 99/6=200,9=1/99;
 -------------------------------------
 Mn3_cuadrado_plano_cc-pvtz-def2-tzv_1
 -------------------------------------
 Symbolic Z-matrix:
 Charge =  3 Multiplicity = 1
 Mn                   -1   0.        -0.00001   0.00003 
 O                    -1    0.00091   1.83     -0.00183 
 H                    0    -0.78367   2.4324   -0.11127 
 O                    -1   -1.83      0.00092  -0.00002 
 H                    0    -2.43807  -0.66346  -0.42646 
 O                    -1   -0.00091  -1.83      0.00185 
 H                    0     0.78373  -2.43231   0.11127 
 O                    -1    1.83     -0.0009   -0.00004 
 H                    0     2.43808   0.6635    0.42636 
 H                    0     2.43733  -0.66589  -0.42663 
 H                    0     0.78626   2.43147  -0.11083 
 H                    0    -2.43731   0.66601   0.4264 
 H                    0    -0.78623  -2.43152   0.11075 
 

 GradGradGradGradGradGradGradGradGradGradGradGradGradGradGradGradGradGrad
 Berny optimization.
 Initialization pass.
                           ----------------------------
                           !    Initial Parameters    !
                           ! (Angstroms and Degrees)  !
 --------------------------                            --------------------------
 ! Name  Definition              Value          Derivative Info.                !
 --------------------------------------------------------------------------------
 ! X1    R(1,-1)                 0.0            Frozen                          !
 ! Y1    R(1,-2)                 0.0            Frozen                          !
 ! Z1    R(1,-3)                 0.0            Frozen                          !
 ! X2    R(2,-1)                 0.0009         Frozen                          !
 ! Y2    R(2,-2)                 1.83           Frozen                          !
 ! Z2    R(2,-3)                -0.0018         Frozen                          !
 ! X4    R(4,-1)                -1.83           Frozen                          !
 ! Y4    R(4,-2)                 0.0009         Frozen                          !
 ! Z4    R(4,-3)                 0.0            Frozen                          !
 ! X6    R(6,-1)                -0.0009         Frozen                          !
 ! Y6    R(6,-2)                -1.83           Frozen                          !
 ! Z6    R(6,-3)                 0.0018         Frozen                          !
 ! X8    R(8,-1)                 1.83           Frozen                          !
 ! Y8    R(8,-2)                -0.0009         Frozen                          !
 ! Z8    R(8,-3)                 0.0            Frozen                          !
 ! R1    R(2,3)                  0.9952         estimate D2E/DX2                !
 ! R2    R(2,11)                 0.9952         estimate D2E/DX2                !
 ! R3    R(4,5)                  0.9965         estimate D2E/DX2                !
 ! R4    R(4,12)                 0.9965         estimate D2E/DX2                !
 ! R5    R(6,7)                  0.9952         estimate D2E/DX2                !
 ! R6    R(6,13)                 0.9952         estimate D2E/DX2                !
 ! R7    R(8,9)                  0.9965         estimate D2E/DX2                !
 ! R8    R(8,10)                 0.9965         estimate D2E/DX2                !
 ! A1    A(1,2,3)              127.2301         estimate D2E/DX2                !
 ! A2    A(1,2,11)             127.2201         estimate D2E/DX2                !
 ! A3    A(3,2,11)             104.138          estimate D2E/DX2                !
 ! A4    A(1,4,5)              127.5811         estimate D2E/DX2                !
 ! A5    A(1,4,12)             127.5731         estimate D2E/DX2                !
 ! A6    A(5,4,12)             104.8458         estimate D2E/DX2                !
 ! A7    A(1,6,7)              127.224          estimate D2E/DX2                !
 ! A8    A(1,6,13)             127.2234         estimate D2E/DX2                !
 ! A9    A(7,6,13)             104.1417         estimate D2E/DX2                !
 ! A10   A(1,8,9)              127.5805         estimate D2E/DX2                !
 ! A11   A(1,8,10)             127.5748         estimate D2E/DX2                !
 ! A12   A(9,8,10)             104.8447         estimate D2E/DX2                !
 ! D1    D(4,1,2,3)             -7.8922         estimate D2E/DX2                !
 ! D2    D(4,1,2,11)          -172.1377         estimate D2E/DX2                !
 ! D3    D(8,1,2,3)            172.104          estimate D2E/DX2                !
 ! D4    D(8,1,2,11)             7.8585         estimate D2E/DX2                !
 ! D5    D(3,2,6,7)            179.9987         estimate D2E/DX2                !
 ! D6    D(3,2,6,13)           -15.7493         estimate D2E/DX2                !
 ! D7    D(11,2,6,7)            15.7543         estimate D2E/DX2                !
 ! D8    D(11,2,6,13)         -179.9937         estimate D2E/DX2                !
 ! D9    D(2,1,4,5)            147.2598         estimate D2E/DX2                !
 ! D10   D(2,1,4,12)           -32.7373         estimate D2E/DX2                !
 ! D11   D(6,1,4,5)            -32.7388         estimate D2E/DX2                !
 ! D12   D(6,1,4,12)           147.2641         estimate D2E/DX2                !
 ! D13   D(5,4,8,9)            179.9959         estimate D2E/DX2                !
 ! D14   D(5,4,8,10)             0.0089         estimate D2E/DX2                !
 ! D15   D(12,4,8,9)             0.0018         estimate D2E/DX2                !
 ! D16   D(12,4,8,10)         -179.9853         estimate D2E/DX2                !
 ! D17   D(4,1,6,7)           -172.1079         estimate D2E/DX2                !
 ! D18   D(4,1,6,13)            -7.857          estimate D2E/DX2                !
 ! D19   D(8,1,6,7)              7.8958         estimate D2E/DX2                !
 ! D20   D(8,1,6,13)           172.1467         estimate D2E/DX2                !
 ! D21   D(2,1,8,9)             32.7391         estimate D2E/DX2                !
 ! D22   D(2,1,8,10)          -147.2509         estimate D2E/DX2                !
 ! D23   D(6,1,8,9)           -147.2623         estimate D2E/DX2                !
 ! D24   D(6,1,8,10)            32.7476         estimate D2E/DX2                !
 --------------------------------------------------------------------------------
 Trust Radius=3.00D-01 FncErr=1.00D-07 GrdErr=1.00D-06
 Number of steps in this run=     69 maximum allowed number of steps=    100.
 GradGradGradGradGradGradGradGradGradGradGradGradGradGradGradGradGradGrad

                          Input orientation:                          
 ---------------------------------------------------------------------
 Center     Atomic      Atomic             Coordinates (Angstroms)
 Number     Number       Type             X           Y           Z
 ---------------------------------------------------------------------
      1         25           0       -0.000004   -0.000013    0.000030
      2          8           0        0.000913    1.829999   -0.001831
      3          1           0       -0.783673    2.432399   -0.111269
      4          8           0       -1.830001    0.000919   -0.000020
      5          1           0       -2.438074   -0.663458   -0.426462
      6          8           0       -0.000911   -1.829999    0.001846
      7          1           0        0.783733   -2.432306    0.111274
      8          8           0        1.829999   -0.000905   -0.000039
      9          1           0        2.438080    0.663503    0.426356
     10          1           0        2.437326   -0.665885   -0.426632
     11          1           0        0.786259    2.431467   -0.110829
     12          1           0       -2.437308    0.666007    0.426400
     13          1           0       -0.786230   -2.431519    0.110752
 ---------------------------------------------------------------------
                    Distance matrix (angstroms):
                    1          2          3          4          5
     1  Mn   0.000000
     2  O    1.830014   0.000000
     3  H    2.557959   0.995208   0.000000
     4  O    1.829997   2.588007   2.649391   0.000000
     5  H    2.562467   3.513730   3.524305   0.996496   0.000000
     6  O    1.829986   3.660000   4.335153   2.588017   2.735695
     7  H    2.557864   4.335072   5.115823   3.572755   3.714569
     8  O    1.830004   2.588005   3.572761   3.660000   4.340191
     9  H    2.562472   2.735661   3.714529   4.340199   5.124939
    10  H    2.562422   3.513688   4.480364   4.340127   4.875401
    11  H    2.557850   0.995195   1.569933   3.572766   4.480459
    12  H    2.562386   2.735541   2.478656   0.996493   1.579510
    13  H    2.557856   4.335067   4.868983   2.649242   2.478553
                    6          7          8          9         10
     6  O    0.000000
     7  H    0.995196   0.000000
     8  O    2.588015   2.649297   0.000000
     9  H    3.513750   3.524227   0.996501   0.000000
    10  H    2.735645   2.478700   0.996507   1.579513   0.000000
    11  H    4.335023   4.868843   2.649170   2.478463   3.524109
    12  H    3.513733   4.480397   4.340107   4.875389   5.124808
    13  H    0.995194   1.569963   3.572788   4.480507   3.714506
                   11         12         13
    11  H    0.000000
    12  H    3.714411   0.000000
    13  H    5.115706   3.524253   0.000000
 Stoichiometry    H8MnO4(3+)
 Framework group  C1[X(H8MnO4)]
 Deg. of freedom    33
 Full point group                 C1      NOp   1
 Largest Abelian subgroup         C1      NOp   1
 Largest concise Abelian subgroup C1      NOp   1
                         Standard orientation:                         
 ---------------------------------------------------------------------
 Center     Atomic      Atomic             Coordinates (Angstroms)
 Number     Number       Type             X           Y           Z
 ---------------------------------------------------------------------
      1         25           0       -0.000004    0.000013   -0.000030
      2          8           0        0.000913   -1.829999    0.001831
      3          1           0       -0.783673   -2.432399    0.111269
      4          8           0       -1.830001   -0.000920    0.000020
      5          1           0       -2.438074    0.663458    0.426462
      6          8           0       -0.000911    1.829999   -0.001846
      7          1           0        0.783733    2.432306   -0.111274
      8          8           0        1.829999    0.000905    0.000039
      9          1           0        2.438080   -0.663503   -0.426356
     10          1           0        2.437326    0.665885    0.426632
     11          1           0        0.786259   -2.431467    0.110829
     12          1           0       -2.437308   -0.666007   -0.426400
     13          1           0       -0.786230    2.431519   -0.110752
 ---------------------------------------------------------------------
 Rotational constants (GHZ):      3.7845630      3.7615701      1.8976080
 Standard basis: CC-pVTZ (5D, 7F)
 There are   344 symmetry adapted cartesian basis functions of A   symmetry.
 There are   300 symmetry adapted basis functions of A   symmetry.
   300 basis functions,   689 primitive gaussians,   344 cartesian basis functions
    31 alpha electrons       31 beta electrons
       nuclear repulsion energy       412.1714967581 Hartrees.
 NAtoms=   13 NActive=   13 NUniq=   13 SFac= 1.00D+00 NAtFMM=   60 NAOKFM=F Big=F
 Integral buffers will be    131072 words long.
 Raffenetti 2 integral format.
 Two-electron integral symmetry is turned on.
 Standard density basis: def2TZV (5D, 7F)
   110 Density fitting functions
 There are   110 symmetry adapted density basis functions of A   symmetry.
 One-electron integrals computed using PRISM.
 NBasis=   300 RedAO= T EigKep=  1.19D-03  NBF=   300
 NBsUse=   300 1.00D-06 EigRej= -1.00D+00 NBFU=   300
 NBasis=      300 NBas6D=      344 NTT=       45150   NTT6D=    59340
 NDBShl=       68 NDBF=        110 NDBF6D=      113  NNucDB=        0
 IDenFi=        2 ISolve=        0 FullAP=F BlkAPC=T NucTyp=        0
 TolInv= 1.00D-06 TolIt=  1.00D-10 IR12=0.
 FoFCou: FMM=F IPFlag=           0 FMFlag=           0 FMFlg1=           0
         NFxFlg=           0 DoJE=F BraDBF=T KetDBF=T FulRan=T
         wScrn=  0.000000 ICntrl=     600 IOpCl=  3 I1Cent=           6 NGrid=           0
         NMat0=    1 NMatS0=    113 NMatT0=    0 NMatD0=    1 NMtDS0=    0 NMtDT0=    0
 Petite list used in FoFCou.
 DBF EigKep=  4.22D-04 EigRej= -1.00D+00
 NDBF=    110  NBFD=   110
 NRank=   110 NBFDU=   110
 S*AI*S=  8.72877568879    
 ExpMin= 2.96D-02 ExpMax= 3.96D+06 ExpMxC= 4.50D+03 IAcc=3 IRadAn=         5 AccDes= 0.00D+00
 Harris functional with IExCor= 1009 and IRadAn=       5 diagonalized for initial guess.
 HarFok:  IExCor= 1009 AccDes= 0.00D+00 IRadAn=         5 IDoV= 1 UseB2=F ITyADJ=14
 ICtDFT=  3500011 ScaDFX=  1.000000  1.000000  1.000000  1.000000
 FoFCou: FMM=F IPFlag=           0 FMFlag=      100000 FMFlg1=           0
         NFxFlg=           0 DoJE=T BraDBF=F KetDBF=T FulRan=T
         wScrn=  0.000000 ICntrl=     500 IOpCl=  0 I1Cent=   200000004 NGrid=           0
         NMat0=    1 NMatS0=      1 NMatT0=    0 NMatD0=    1 NMtDS0=    0 NMtDT0=    0
 Petite list used in FoFCou.
 Requested convergence on RMS density matrix=1.00D-08 within 128 cycles.
 Requested convergence on MAX density matrix=1.00D-06.
 Requested convergence on             energy=1.00D-06.
 No special actions if energy rises.
 FoFCou: FMM=F IPFlag=           0 FMFlag=      100000 FMFlg1=           0
         NFxFlg=           0 DoJE=T BraDBF=T KetDBF=F FulRan=T
         wScrn=  0.000000 ICntrl=     500 IOpCl=  0 I1Cent=           5 NGrid=           0
         NMat0=    1 NMatS0=      1 NMatT0=    0 NMatD0=    1 NMtDS0=    0 NMtDT0=    0
 Symmetry not used in FoFCou.
 SCF Done:  E(RPBE-PBE) =  -1455.96034881     A.U. after   17 cycles
            NFock= 17  Conv=0.93D-08     -V/T= 2.0022

 **********************************************************************

            Population analysis using the SCF density.

 **********************************************************************

 Orbital symmetries:
       Occupied  (A) (A) (A) (A) (A) (A) (A) (A) (A) (A) (A) (A)
                 (A) (A) (A) (A) (A) (A) (A) (A) (A) (A) (A) (A)
                 (A) (A) (A) (A) (A) (A) (A)
       Virtual   (A) (A) (A) (A) (A) (A) (A) (A) (A) (A) (A) (A)
                 (A) (A) (A) (A) (A) (A) (A) (A) (A) (A) (A) (A)
                 (A) (A) (A) (A) (A) (A) (A) (A) (A) (A) (A) (A)
                 (A) (A) (A) (A) (A) (A) (A) (A) (A) (A) (A) (A)
                 (A) (A) (A) (A) (A) (A) (A) (A) (A) (A) (A) (A)
                 (A) (A) (A) (A) (A) (A) (A) (A) (A) (A) (A) (A)
                 (A) (A) (A) (A) (A) (A) (A) (A) (A) (A) (A) (A)
                 (A) (A) (A) (A) (A) (A) (A) (A) (A) (A) (A) (A)
                 (A) (A) (A) (A) (A) (A) (A) (A) (A) (A) (A) (A)
                 (A) (A) (A) (A) (A) (A) (A) (A) (A) (A) (A) (A)
                 (A) (A) (A) (A) (A) (A) (A) (A) (A) (A) (A) (A)
                 (A) (A) (A) (A) (A) (A) (A) (A) (A) (A) (A) (A)
                 (A) (A) (A) (A) (A) (A) (A) (A) (A) (A) (A) (A)
                 (A) (A) (A) (A) (A) (A) (A) (A) (A) (A) (A) (A)
                 (A) (A) (A) (A) (A) (A) (A) (A) (A) (A) (A) (A)
                 (A) (A) (A) (A) (A) (A) (A) (A) (A) (A) (A) (A)
                 (A) (A) (A) (A) (A) (A) (A) (A) (A) (A) (A) (A)
                 (A) (A) (A) (A) (A) (A) (A) (A) (A) (A) (A) (A)
                 (A) (A) (A) (A) (A) (A) (A) (A) (A) (A) (A) (A)
                 (A) (A) (A) (A) (A) (A) (A) (A) (A) (A) (A) (A)
                 (A) (A) (A) (A) (A) (A) (A) (A) (A) (A) (A) (A)
                 (A) (A) (A) (A) (A) (A) (A) (A) (A) (A) (A) (A)
                 (A) (A) (A) (A) (A)
 The electronic state is 1-A.
 Alpha  occ. eigenvalues -- -234.79290 -27.77030 -23.93914 -23.92881 -23.92122
 Alpha  occ. eigenvalues --  -19.42515 -19.42515 -19.42104 -19.42104  -3.74158
 Alpha  occ. eigenvalues --   -2.62912  -2.62108  -2.61405  -1.58542  -1.57282
 Alpha  occ. eigenvalues --   -1.56937  -1.56894  -1.14069  -1.11731  -1.11367
 Alpha  occ. eigenvalues --   -1.09822  -1.09530  -1.07880  -1.03344  -1.03245
 Alpha  occ. eigenvalues --   -0.94491  -0.94471  -0.93730  -0.91215  -0.85992
 Alpha  occ. eigenvalues --   -0.85418
 Alpha virt. eigenvalues --   -0.78962  -0.78337  -0.69480  -0.57372  -0.52393
 Alpha virt. eigenvalues --   -0.52023  -0.49965  -0.47018  -0.45777  -0.44732
 Alpha virt. eigenvalues --   -0.44574  -0.44138  -0.41606  -0.33030  -0.32971
 Alpha virt. eigenvalues --   -0.32716  -0.32232  -0.31250  -0.31188  -0.28047
 Alpha virt. eigenvalues --   -0.26844  -0.26615  -0.26312  -0.17177  -0.16230
 Alpha virt. eigenvalues --   -0.15756  -0.15084  -0.11435  -0.11376  -0.08642
 Alpha virt. eigenvalues --   -0.07955  -0.06471  -0.04379  -0.01313  -0.00659
 Alpha virt. eigenvalues --    0.01295   0.02090   0.02992   0.04384   0.04765
 Alpha virt. eigenvalues --    0.04896   0.05290   0.05486   0.06508   0.09112
 Alpha virt. eigenvalues --    0.09221   0.10431   0.12609   0.17093   0.19061
 Alpha virt. eigenvalues --    0.24722   0.25478   0.26189   0.27515   0.32487
 Alpha virt. eigenvalues --    0.34630   0.38097   0.38726   0.39492   0.40493
 Alpha virt. eigenvalues --    0.48659   0.51491   0.53546   0.55549   0.56120
 Alpha virt. eigenvalues --    0.61267   0.62636   0.65740   0.66572   0.69394
 Alpha virt. eigenvalues --    0.69862   0.71675   0.71694   0.71874   0.74194
 Alpha virt. eigenvalues --    0.81521   0.81872   0.85596   0.85686   0.89437
 Alpha virt. eigenvalues --    0.90936   0.95497   0.96099   0.98209   1.00990
 Alpha virt. eigenvalues --    1.03480   1.04976   1.10217   1.14279   1.14650
 Alpha virt. eigenvalues --    1.19968   1.21088   1.23744   1.31253   1.31331
 Alpha virt. eigenvalues --    1.32990   1.33001   1.35610   1.40558   1.47383
 Alpha virt. eigenvalues --    1.52035   1.53907   1.61244   1.61753   1.66620
 Alpha virt. eigenvalues --    1.68443   1.76810   1.84554   1.86233   1.95425
 Alpha virt. eigenvalues --    1.96051   1.96885   1.99765   2.10210   2.11349
 Alpha virt. eigenvalues --    2.14159   2.16540   2.33883   2.35367   2.36182
 Alpha virt. eigenvalues --    2.40361   2.40803   2.41821   2.42764   2.56987
 Alpha virt. eigenvalues --    2.59213   2.59383   2.61218   2.62235   2.62303
 Alpha virt. eigenvalues --    2.63222   2.64304   2.66419   2.70317   2.70361
 Alpha virt. eigenvalues --    2.72295   2.73432   2.76420   2.76471   2.80303
 Alpha virt. eigenvalues --    2.80304   2.83519   2.83638   2.85612   2.95205
 Alpha virt. eigenvalues --    2.95785   2.96241   2.99190   3.07583   3.08412
 Alpha virt. eigenvalues --    3.10475   3.12525   3.12714   3.14671   3.14832
 Alpha virt. eigenvalues --    3.15131   3.16130   3.16429   3.18968   3.18987
 Alpha virt. eigenvalues --    3.22788   3.28440   3.30568   3.31764   3.32074
 Alpha virt. eigenvalues --    3.33268   3.35817   3.43949   3.44326   3.44930
 Alpha virt. eigenvalues --    3.47813   3.57275   3.57695   3.59975   3.61406
 Alpha virt. eigenvalues --    3.61764   3.63266   3.63820   3.64495   3.64881
 Alpha virt. eigenvalues --    3.66059   3.66662   3.87010   3.87907   3.89955
 Alpha virt. eigenvalues --    3.90737   3.91285   3.92633   4.03992   4.09122
 Alpha virt. eigenvalues --    4.12698   4.14737   4.27030   4.28342   4.28905
 Alpha virt. eigenvalues --    4.32231   4.38446   4.42878   4.43840   4.44217
 Alpha virt. eigenvalues --    4.59774   4.77638   4.81552   4.81581   4.84468
 Alpha virt. eigenvalues --    5.24034   5.26224   5.27371   5.28540   5.53176
 Alpha virt. eigenvalues --    5.54126   5.55846   5.56089   5.56368   5.59317
 Alpha virt. eigenvalues --    5.59571   5.59735   5.66763   5.71040   5.72437
 Alpha virt. eigenvalues --    5.74388   5.77321   5.77401   5.78104   5.80569
 Alpha virt. eigenvalues --    5.89459   5.90529   5.91189   5.92399   5.92911
 Alpha virt. eigenvalues --    5.93459   5.94166   5.96339   6.00104   6.07463
 Alpha virt. eigenvalues --    6.10001   6.14104   6.14824   6.16106   6.17389
 Alpha virt. eigenvalues --    6.21422   6.21712   6.23976   6.23983   6.26200
 Alpha virt. eigenvalues --    6.36210   6.36278   6.36828   6.45301   6.46851
 Alpha virt. eigenvalues --    6.49863   6.66714   6.67822   6.71638   6.71796
 Alpha virt. eigenvalues --    6.71940   6.79800   6.91877   7.04687   7.05181
 Alpha virt. eigenvalues --    7.07769   7.09524   7.11539   7.45410   7.46668
 Alpha virt. eigenvalues --   11.54019  11.64152  11.70391  11.94667
     Molecular Orbital Coefficients:
                           1         2         3         4         5
                           O         O         O         O         O
     Eigenvalues --  -234.79290 -27.77030 -23.93914 -23.92881 -23.92122
   1 1   Mn 1S          1.00064  -0.30251   0.00000   0.00000   0.00000
   2        2S         -0.00217   1.04661  -0.00000  -0.00000  -0.00000
   3        3S         -0.00031  -0.00273  -0.00000   0.00000   0.00000
   4        4S         -0.00233  -0.00842  -0.00000  -0.00000  -0.00000
   5        5S         -0.00188  -0.00591  -0.00000  -0.00000  -0.00000
   6        6S          0.00020   0.00007   0.00000  -0.00000  -0.00000
   7        7S         -0.00025  -0.00078  -0.00000  -0.00000  -0.00000
   8        8PX         0.00000   0.00000   0.00073   1.00087  -0.00052
   9        8PY        -0.00000  -0.00000  -0.68584   0.00088   0.72895
  10        8PZ         0.00000   0.00000   0.72885  -0.00018   0.68582
  11        9PX         0.00000   0.00000   0.00000   0.00607  -0.00000
  12        9PY        -0.00000   0.00000  -0.00393   0.00001   0.00447
  13        9PZ         0.00000   0.00000   0.00286  -0.00000   0.00282
  14       10PX         0.00000   0.00000   0.00001   0.00793  -0.00000
  15       10PY        -0.00000   0.00000  -0.00506   0.00001   0.00577
  16       10PZ         0.00000   0.00000   0.00299  -0.00000   0.00285
  17       11PX        -0.00000  -0.00000   0.00000   0.00170  -0.00000
  18       11PY        -0.00000  -0.00000  -0.00122   0.00000   0.00116
  19       11PZ         0.00000  -0.00000   0.00181  -0.00000   0.00144
  20       12PX         0.00000   0.00000   0.00000   0.00408  -0.00000
  21       12PY        -0.00000   0.00000  -0.00267   0.00000   0.00303
  22       12PZ         0.00000   0.00000   0.00231  -0.00000   0.00231
  23       13PX         0.00000   0.00000  -0.00000  -0.00041   0.00000
  24       13PY         0.00000   0.00000   0.00028  -0.00000  -0.00025
  25       13PZ         0.00000  -0.00000  -0.00039   0.00000  -0.00026
  26       14D 0       -0.00011  -0.00042  -0.00000  -0.00000  -0.00000
  27       14D+1        0.00000  -0.00000   0.00000   0.00000   0.00000
  28       14D-1        0.00000   0.00030  -0.00000  -0.00000   0.00000
  29       14D+2        0.00000   0.00003   0.00000  -0.00000  -0.00000
  30       14D-2        0.00000   0.00000  -0.00000  -0.00000   0.00000
  31       15D 0        0.00031   0.00124   0.00000   0.00000   0.00000
  32       15D+1       -0.00000   0.00000  -0.00000  -0.00000  -0.00000
  33       15D-1        0.00000  -0.00018   0.00000   0.00000  -0.00000
  34       15D+2       -0.00001  -0.00006  -0.00000   0.00000   0.00000
  35       15D-2       -0.00000  -0.00000   0.00000   0.00000  -0.00000
  36       16D 0        0.00004   0.00015   0.00000   0.00000   0.00000
  37       16D+1        0.00000   0.00000   0.00000  -0.00000  -0.00000
  38       16D-1       -0.00000  -0.00043  -0.00000   0.00000  -0.00000
  39       16D+2       -0.00000  -0.00003  -0.00000   0.00000   0.00000
  40       16D-2       -0.00000  -0.00000   0.00000   0.00000  -0.00000
  41       17D 0       -0.00006  -0.00000  -0.00000  -0.00000  -0.00000
  42       17D+1       -0.00000  -0.00000   0.00000   0.00000  -0.00000
  43       17D-1        0.00001   0.00007  -0.00000  -0.00000   0.00000
  44       17D+2        0.00003   0.00009  -0.00000   0.00000   0.00000
  45       17D-2        0.00000   0.00000   0.00000   0.00000  -0.00000
  46       18F 0       -0.00000  -0.00000   0.00023  -0.00000   0.00007
  47       18F+1       -0.00000  -0.00000   0.00000  -0.00019   0.00000
  48       18F-1        0.00000  -0.00000  -0.00006  -0.00000  -0.00032
  49       18F+2        0.00000  -0.00000  -0.00007  -0.00000   0.00008
  50       18F-2        0.00000  -0.00000  -0.00000   0.00010  -0.00000
  51       18F+3       -0.00000  -0.00000   0.00000  -0.00017  -0.00000
  52       18F-3       -0.00000   0.00000  -0.00005  -0.00000   0.00017
  53       19F 0        0.00000   0.00000  -0.00003   0.00000   0.00003
  54       19F+1        0.00000   0.00000   0.00000   0.00029  -0.00000
  55       19F-1       -0.00000   0.00000  -0.00013   0.00000   0.00027
  56       19F+2       -0.00000  -0.00000   0.00003  -0.00000  -0.00005
  57       19F-2       -0.00000  -0.00000   0.00000  -0.00003  -0.00000
  58       19F+3        0.00000   0.00000   0.00000  -0.00007  -0.00000
  59       19F-3        0.00000   0.00000  -0.00006  -0.00000   0.00003
  60       20G 0       -0.00000   0.00006  -0.00000  -0.00000   0.00000
  61       20G+1        0.00000   0.00000   0.00000   0.00000   0.00000
  62       20G-1       -0.00000  -0.00005  -0.00000  -0.00000   0.00000
  63       20G+2       -0.00000   0.00000  -0.00000   0.00000  -0.00000
  64       20G-2       -0.00000  -0.00000  -0.00000  -0.00000   0.00000
  65       20G+3        0.00000  -0.00000   0.00000  -0.00000   0.00000
  66       20G-3       -0.00000   0.00004   0.00000  -0.00000  -0.00000
  67       20G+4       -0.00001  -0.00008  -0.00000  -0.00000   0.00000
  68       20G-4       -0.00000  -0.00000  -0.00000   0.00000   0.00000
  69 2   O  1S          0.00000  -0.00002  -0.00001  -0.00000   0.00000
  70        2S         -0.00000  -0.00012  -0.00005  -0.00000   0.00004
  71        3S         -0.00002  -0.00003  -0.00003   0.00000   0.00004
  72        4S          0.00029   0.00122   0.00042  -0.00000  -0.00061
  73        5PX         0.00000   0.00000  -0.00000  -0.00004   0.00000
  74        5PY        -0.00001  -0.00001  -0.00001  -0.00000   0.00002
  75        5PZ        -0.00000  -0.00000  -0.00001   0.00000  -0.00000
  76        6PX         0.00000   0.00000   0.00000   0.00027  -0.00000
  77        6PY         0.00001  -0.00001   0.00009   0.00000  -0.00013
  78        6PZ         0.00000   0.00001   0.00004  -0.00000   0.00001
  79        7PX        -0.00000  -0.00000  -0.00000   0.00076   0.00000
  80        7PY         0.00022   0.00104   0.00150  -0.00000  -0.00165
  81        7PZ         0.00002   0.00000  -0.00005  -0.00000   0.00004
  82        8D 0        0.00000   0.00002  -0.00001   0.00000   0.00000
  83        8D+1        0.00000   0.00000   0.00000  -0.00001  -0.00000
  84        8D-1       -0.00000  -0.00000  -0.00002   0.00000  -0.00000
  85        8D+2       -0.00000   0.00000  -0.00004   0.00000   0.00003
  86        8D-2       -0.00000   0.00000  -0.00000  -0.00005   0.00000
  87        9D 0       -0.00004  -0.00014  -0.00005  -0.00000   0.00007
  88        9D+1       -0.00000  -0.00000  -0.00000   0.00005   0.00000
  89        9D-1        0.00000  -0.00001   0.00009   0.00000   0.00001
  90        9D+2        0.00002   0.00001   0.00015  -0.00000  -0.00011
  91        9D-2        0.00000   0.00000   0.00000   0.00011  -0.00000
  92       10F 0       -0.00000  -0.00000  -0.00001   0.00000  -0.00000
  93       10F+1       -0.00000  -0.00000  -0.00000  -0.00001   0.00000
  94       10F-1       -0.00000  -0.00001  -0.00000  -0.00000   0.00001
  95       10F+2        0.00000   0.00001   0.00001  -0.00000  -0.00002
  96       10F-2        0.00000   0.00000   0.00000  -0.00000  -0.00000
  97       10F+3        0.00000   0.00000   0.00000  -0.00000  -0.00000
  98       10F-3       -0.00001  -0.00003  -0.00002   0.00000   0.00002
  99 3   H  1S          0.00000  -0.00000  -0.00001  -0.00010   0.00000
 100        2S         -0.00005  -0.00009   0.00025   0.00065  -0.00024
 101        3S          0.00000   0.00008   0.00016   0.00015  -0.00016
 102        4PX        -0.00001  -0.00004  -0.00002   0.00001   0.00003
 103        4PY         0.00000   0.00001   0.00001  -0.00002  -0.00002
 104        4PZ         0.00000   0.00001   0.00002   0.00001  -0.00001
 105        5PX         0.00001   0.00006   0.00024   0.00010  -0.00024
 106        5PY        -0.00007  -0.00024  -0.00029   0.00032   0.00032
 107        5PZ        -0.00001  -0.00000  -0.00004  -0.00004   0.00002
 108        6D 0        0.00001   0.00002   0.00002  -0.00004  -0.00002
 109        6D+1       -0.00000   0.00000  -0.00000   0.00000   0.00001
 110        6D-1        0.00000   0.00001   0.00001  -0.00000  -0.00002
 111        6D+2        0.00001   0.00003   0.00009  -0.00003  -0.00009
 112        6D-2       -0.00001  -0.00002  -0.00003   0.00004   0.00002
 113 4   O  1S         -0.00000  -0.00003   0.00000   0.00002  -0.00000
 114        2S         -0.00001  -0.00015   0.00000   0.00013  -0.00000
 115        3S         -0.00001  -0.00002  -0.00000   0.00004  -0.00000
 116        4S          0.00015   0.00090   0.00000  -0.00048   0.00000
 117        5PX        -0.00001  -0.00002   0.00000   0.00003   0.00000
 118        5PY        -0.00000  -0.00000   0.00001  -0.00000  -0.00003
 119        5PZ         0.00000   0.00000  -0.00001  -0.00000  -0.00002
 120        6PX         0.00002   0.00004  -0.00000  -0.00020  -0.00000
 121        6PY         0.00000   0.00000  -0.00007   0.00000   0.00021
 122        6PZ        -0.00000   0.00000   0.00001   0.00000   0.00014
 123        7PX         0.00029   0.00121  -0.00000  -0.00248  -0.00000
 124        7PY         0.00000   0.00000  -0.00024  -0.00000   0.00073
 125        7PZ        -0.00000  -0.00000  -0.00014   0.00000   0.00041
 126        8D 0        0.00000   0.00001   0.00000   0.00002  -0.00000
 127        8D+1        0.00000   0.00000  -0.00001  -0.00000  -0.00001
 128        8D-1       -0.00000  -0.00001   0.00000   0.00002  -0.00000
 129        8D+2        0.00000  -0.00001  -0.00000  -0.00004   0.00000
 130        8D-2        0.00000  -0.00000   0.00003  -0.00000  -0.00003
 131        9D 0       -0.00001  -0.00007  -0.00000  -0.00002   0.00000
 132        9D+1       -0.00000  -0.00000   0.00005   0.00000  -0.00002
 133        9D-1        0.00003   0.00009  -0.00000  -0.00016  -0.00000
 134        9D+2       -0.00001   0.00003   0.00000   0.00011  -0.00000
 135        9D-2       -0.00000   0.00000  -0.00011   0.00000   0.00005
 136       10F 0        0.00000   0.00000  -0.00000  -0.00000  -0.00002
 137       10F+1       -0.00000  -0.00002   0.00000   0.00002  -0.00000
 138       10F-1       -0.00000  -0.00000  -0.00000   0.00000   0.00001
 139       10F+2        0.00000   0.00000   0.00001  -0.00000  -0.00001
 140       10F-2       -0.00000  -0.00001   0.00000   0.00001  -0.00000
 141       10F+3        0.00000   0.00002   0.00000  -0.00002  -0.00000
 142       10F-3        0.00000   0.00000  -0.00001  -0.00000   0.00001
 143 5   H  1S         -0.00000  -0.00002  -0.00004   0.00003   0.00008
 144        2S          0.00003   0.00010   0.00019  -0.00054  -0.00071
 145        3S          0.00000   0.00008   0.00007  -0.00028  -0.00016
 146        4PX         0.00000   0.00001  -0.00001  -0.00002   0.00001
 147        4PY         0.00001   0.00003  -0.00000  -0.00004   0.00002
 148        4PZ         0.00000   0.00002   0.00001  -0.00002   0.00000
 149        5PX        -0.00005  -0.00020   0.00009   0.00039  -0.00032
 150        5PY        -0.00004  -0.00011  -0.00001   0.00036   0.00011
 151        5PZ        -0.00002  -0.00007  -0.00003   0.00024   0.00008
 152        6D 0        0.00000   0.00002  -0.00002  -0.00005   0.00003
 153        6D+1        0.00000   0.00001  -0.00001  -0.00001   0.00002
 154        6D-1        0.00000   0.00001  -0.00000  -0.00005  -0.00001
 155        6D+2       -0.00001  -0.00003   0.00001   0.00012  -0.00002
 156        6D-2        0.00000   0.00001  -0.00000  -0.00002   0.00004
 157 6   O  1S          0.00000  -0.00002   0.00001   0.00000  -0.00000
 158        2S         -0.00000  -0.00012   0.00005  -0.00000  -0.00004
 159        3S         -0.00002  -0.00003   0.00003  -0.00000  -0.00004
 160        4S          0.00029   0.00122  -0.00042   0.00000   0.00061
 161        5PX        -0.00000  -0.00000  -0.00000  -0.00004   0.00000
 162        5PY         0.00001   0.00001  -0.00001  -0.00000   0.00002
 163        5PZ         0.00000   0.00000  -0.00001   0.00000  -0.00000
 164        6PX         0.00000  -0.00000   0.00000   0.00027  -0.00000
 165        6PY        -0.00001   0.00001   0.00009   0.00000  -0.00013
 166        6PZ        -0.00000  -0.00001   0.00004  -0.00000   0.00001
 167        7PX         0.00000   0.00000  -0.00000   0.00076   0.00000
 168        7PY        -0.00022  -0.00104   0.00150  -0.00000  -0.00165
 169        7PZ        -0.00002  -0.00000  -0.00005  -0.00000   0.00004
 170        8D 0        0.00000   0.00002   0.00001  -0.00000  -0.00000
 171        8D+1        0.00000   0.00000  -0.00000   0.00001   0.00000
 172        8D-1       -0.00000  -0.00000   0.00002  -0.00000   0.00000
 173        8D+2       -0.00000   0.00000   0.00004  -0.00000  -0.00003
 174        8D-2       -0.00000   0.00000   0.00000   0.00005  -0.00000
 175        9D 0       -0.00004  -0.00014   0.00005  -0.00000  -0.00007
 176        9D+1       -0.00000  -0.00000   0.00000  -0.00005  -0.00000
 177        9D-1        0.00000  -0.00001  -0.00009  -0.00000  -0.00001
 178        9D+2        0.00002   0.00001  -0.00015   0.00000   0.00011
 179        9D-2        0.00000   0.00000  -0.00000  -0.00011   0.00000
 180       10F 0        0.00000   0.00000  -0.00001   0.00000  -0.00000
 181       10F+1        0.00000   0.00000  -0.00000  -0.00001   0.00000
 182       10F-1        0.00000   0.00001  -0.00000  -0.00000   0.00001
 183       10F+2       -0.00000  -0.00001   0.00001  -0.00000  -0.00002
 184       10F-2       -0.00000  -0.00000   0.00000  -0.00000  -0.00000
 185       10F+3       -0.00000  -0.00000   0.00000  -0.00000  -0.00000
 186       10F-3        0.00001   0.00003  -0.00002   0.00000   0.00002
 187 7   H  1S          0.00000  -0.00000   0.00001   0.00010  -0.00000
 188        2S         -0.00005  -0.00009  -0.00025  -0.00065   0.00024
 189        3S          0.00000   0.00008  -0.00016  -0.00015   0.00016
 190        4PX         0.00001   0.00004  -0.00002   0.00001   0.00003
 191        4PY        -0.00000  -0.00001   0.00001  -0.00002  -0.00002
 192        4PZ        -0.00000  -0.00001   0.00002   0.00001  -0.00001
 193        5PX        -0.00001  -0.00006   0.00024   0.00010  -0.00024
 194        5PY         0.00007   0.00024  -0.00029   0.00032   0.00032
 195        5PZ         0.00001   0.00000  -0.00004  -0.00004   0.00002
 196        6D 0        0.00001   0.00002  -0.00002   0.00004   0.00002
 197        6D+1       -0.00000   0.00000   0.00000  -0.00000  -0.00001
 198        6D-1        0.00000   0.00001  -0.00001   0.00000   0.00002
 199        6D+2        0.00001   0.00003  -0.00009   0.00003   0.00009
 200        6D-2       -0.00001  -0.00002   0.00003  -0.00004  -0.00002
 201 8   O  1S         -0.00000  -0.00003  -0.00000  -0.00002   0.00000
 202        2S         -0.00001  -0.00015  -0.00000  -0.00013   0.00000
 203        3S         -0.00001  -0.00002  -0.00000  -0.00004   0.00000
 204        4S          0.00015   0.00090   0.00000   0.00048  -0.00000
 205        5PX         0.00001   0.00002   0.00000   0.00003   0.00000
 206        5PY         0.00000   0.00000   0.00001  -0.00000  -0.00003
 207        5PZ        -0.00000  -0.00000  -0.00001  -0.00000  -0.00002
 208        6PX        -0.00002  -0.00004  -0.00000  -0.00020  -0.00000
 209        6PY        -0.00000  -0.00000  -0.00007   0.00000   0.00021
 210        6PZ         0.00000   0.00000   0.00001   0.00000   0.00014
 211        7PX        -0.00029  -0.00121  -0.00000  -0.00248  -0.00000
 212        7PY        -0.00000  -0.00000  -0.00024  -0.00000   0.00073
 213        7PZ         0.00000  -0.00000  -0.00014   0.00000   0.00041
 214        8D 0        0.00000   0.00001  -0.00000  -0.00002   0.00000
 215        8D+1        0.00000   0.00000   0.00001   0.00000   0.00001
 216        8D-1       -0.00000  -0.00001  -0.00000  -0.00002   0.00000
 217        8D+2        0.00000  -0.00001   0.00000   0.00004  -0.00000
 218        8D-2        0.00000  -0.00000  -0.00003   0.00000   0.00003
 219        9D 0       -0.00001  -0.00007   0.00000   0.00002   0.00000
 220        9D+1       -0.00000  -0.00000  -0.00005  -0.00000   0.00002
 221        9D-1        0.00003   0.00009   0.00000   0.00016   0.00000
 222        9D+2       -0.00001   0.00003  -0.00000  -0.00011   0.00000
 223        9D-2       -0.00000   0.00000   0.00011  -0.00000  -0.00005
 224       10F 0        0.00000   0.00000  -0.00000   0.00000  -0.00002
 225       10F+1        0.00000   0.00002   0.00000   0.00002  -0.00000
 226       10F-1        0.00000   0.00000  -0.00000   0.00000   0.00001
 227       10F+2       -0.00000  -0.00000   0.00001  -0.00000  -0.00001
 228       10F-2        0.00000   0.00001   0.00000   0.00001  -0.00000
 229       10F+3       -0.00000  -0.00002   0.00000  -0.00002  -0.00000
 230       10F-3       -0.00000  -0.00000  -0.00001  -0.00000   0.00001
 231 9   H  1S         -0.00000  -0.00002   0.00004  -0.00003  -0.00008
 232        2S          0.00003   0.00010  -0.00019   0.00054   0.00071
 233        3S          0.00000   0.00008  -0.00007   0.00028   0.00016
 234        4PX        -0.00000  -0.00001  -0.00001  -0.00002   0.00001
 235        4PY        -0.00001  -0.00003  -0.00000  -0.00004   0.00002
 236        4PZ        -0.00000  -0.00002   0.00001  -0.00002   0.00000
 237        5PX         0.00005   0.00020   0.00009   0.00039  -0.00032
 238        5PY         0.00004   0.00011  -0.00001   0.00036   0.00011
 239        5PZ         0.00002   0.00007  -0.00003   0.00024   0.00008
 240        6D 0        0.00000   0.00002   0.00002   0.00005  -0.00003
 241        6D+1        0.00000   0.00001   0.00001   0.00001  -0.00002
 242        6D-1        0.00000   0.00001   0.00000   0.00005   0.00001
 243        6D+2       -0.00001  -0.00003  -0.00001  -0.00012   0.00002
 244        6D-2        0.00000   0.00001   0.00000   0.00002  -0.00004
 245 10  H  1S         -0.00000  -0.00002  -0.00004  -0.00003   0.00008
 246        2S          0.00003   0.00010   0.00019   0.00054  -0.00071
 247        3S          0.00000   0.00008   0.00007   0.00028  -0.00016
 248        4PX        -0.00000  -0.00001   0.00001  -0.00002  -0.00001
 249        4PY         0.00001   0.00003  -0.00000   0.00004   0.00002
 250        4PZ         0.00000   0.00002   0.00001   0.00002   0.00000
 251        5PX         0.00005   0.00020  -0.00009   0.00039   0.00032
 252        5PY        -0.00004  -0.00011  -0.00001  -0.00035   0.00011
 253        5PZ        -0.00002  -0.00007  -0.00003  -0.00024   0.00008
 254        6D 0        0.00000   0.00002  -0.00002   0.00005   0.00003
 255        6D+1       -0.00000  -0.00001   0.00001  -0.00001  -0.00002
 256        6D-1        0.00000   0.00001  -0.00000   0.00005  -0.00001
 257        6D+2       -0.00001  -0.00003   0.00001  -0.00012  -0.00002
 258        6D-2       -0.00000  -0.00001   0.00000  -0.00002  -0.00004
 259 11  H  1S          0.00000  -0.00000  -0.00001   0.00010   0.00000
 260        2S         -0.00005  -0.00009   0.00025  -0.00065  -0.00024
 261        3S          0.00000   0.00008   0.00016  -0.00015  -0.00016
 262        4PX         0.00001   0.00004   0.00002   0.00001  -0.00003
 263        4PY         0.00000   0.00001   0.00001   0.00002  -0.00002
 264        4PZ         0.00000   0.00001   0.00002  -0.00001  -0.00001
 265        5PX        -0.00001  -0.00006  -0.00024   0.00010   0.00024
 266        5PY        -0.00007  -0.00024  -0.00029  -0.00032   0.00032
 267        5PZ        -0.00001  -0.00000  -0.00004   0.00004   0.00002
 268        6D 0        0.00001   0.00002   0.00002   0.00004  -0.00002
 269        6D+1        0.00000  -0.00000   0.00000   0.00000  -0.00001
 270        6D-1        0.00000   0.00001   0.00001   0.00000  -0.00002
 271        6D+2        0.00001   0.00003   0.00009   0.00003  -0.00009
 272        6D-2        0.00001   0.00002   0.00003   0.00004  -0.00002
 273 12  H  1S         -0.00000  -0.00002   0.00004   0.00003  -0.00008
 274        2S          0.00003   0.00010  -0.00019  -0.00054   0.00071
 275        3S          0.00000   0.00008  -0.00007  -0.00028   0.00016
 276        4PX         0.00000   0.00001   0.00001  -0.00002  -0.00001
 277        4PY        -0.00001  -0.00003  -0.00000   0.00004   0.00002
 278        4PZ        -0.00000  -0.00002   0.00001   0.00002   0.00000
 279        5PX        -0.00005  -0.00020  -0.00009   0.00039   0.00032
 280        5PY         0.00004   0.00011  -0.00001  -0.00035   0.00011
 281        5PZ         0.00002   0.00007  -0.00003  -0.00024   0.00008
 282        6D 0        0.00000   0.00002   0.00002  -0.00005  -0.00003
 283        6D+1       -0.00000  -0.00001  -0.00001   0.00001   0.00002
 284        6D-1        0.00000   0.00001   0.00000  -0.00005   0.00001
 285        6D+2       -0.00001  -0.00003  -0.00001   0.00012   0.00002
 286        6D-2       -0.00000  -0.00001  -0.00000   0.00002   0.00004
 287 13  H  1S          0.00000  -0.00000   0.00001  -0.00010  -0.00000
 288        2S         -0.00005  -0.00009  -0.00025   0.00065   0.00024
 289        3S          0.00000   0.00008  -0.00016   0.00015   0.00016
 290        4PX        -0.00001  -0.00004   0.00002   0.00001  -0.00003
 291        4PY        -0.00000  -0.00001   0.00001   0.00002  -0.00002
 292        4PZ        -0.00000  -0.00001   0.00002  -0.00001  -0.00001
 293        5PX         0.00001   0.00006  -0.00024   0.00010   0.00024
 294        5PY         0.00007   0.00024  -0.00029  -0.00032   0.00032
 295        5PZ         0.00001   0.00000  -0.00004   0.00004   0.00002
 296        6D 0        0.00001   0.00002  -0.00002  -0.00004   0.00002
 297        6D+1        0.00000  -0.00000  -0.00000  -0.00000   0.00001
 298        6D-1        0.00000   0.00001  -0.00001  -0.00000   0.00002
 299        6D+2        0.00001   0.00003  -0.00009  -0.00003   0.00009
 300        6D-2        0.00001   0.00002  -0.00003  -0.00004   0.00002
                           6         7         8         9        10
                           O         O         O         O         O
     Eigenvalues --   -19.42515 -19.42515 -19.42104 -19.42104  -3.74158
   1 1   Mn 1S          0.00001   0.00001   0.00001   0.00001   0.11103
   2        2S          0.00001   0.00001   0.00001   0.00002  -0.43425
   3        3S          0.00004   0.00004   0.00006   0.00006   0.56227
   4        4S          0.00253   0.00250   0.00226   0.00232  -0.02062
   5        5S          0.00092   0.00091   0.00068   0.00070  -0.01211
   6        6S          0.00018   0.00018   0.00014   0.00015   0.57585
   7        7S          0.00019   0.00019   0.00019   0.00019  -0.00244
   8        8PX         0.00000  -0.00000   0.00000  -0.00000  -0.00000
   9        8PY         0.00000  -0.00000  -0.00000   0.00000  -0.00000
  10        8PZ         0.00000  -0.00000   0.00000  -0.00000   0.00000
  11        9PX         0.00055  -0.00056   0.00000  -0.00000   0.00000
  12        9PY         0.00000  -0.00000  -0.00053   0.00051   0.00000
  13        9PZ        -0.00000  -0.00000  -0.00000   0.00000   0.00000
  14       10PX         0.00135  -0.00137   0.00000  -0.00000   0.00000
  15       10PY         0.00000  -0.00000  -0.00140   0.00136   0.00000
  16       10PZ        -0.00000  -0.00000  -0.00002   0.00002   0.00000
  17       11PX         0.00018  -0.00018   0.00000  -0.00000  -0.00000
  18       11PY         0.00000  -0.00000  -0.00040   0.00039  -0.00000
  19       11PZ        -0.00000   0.00000  -0.00004   0.00003  -0.00000
  20       12PX         0.00012  -0.00012   0.00000  -0.00000  -0.00000
  21       12PY         0.00000  -0.00000  -0.00010   0.00010   0.00000
  22       12PZ         0.00000  -0.00000   0.00000  -0.00000   0.00000
  23       13PX        -0.00005   0.00005  -0.00000   0.00000   0.00000
  24       13PY        -0.00000   0.00000   0.00008  -0.00007   0.00000
  25       13PZ         0.00000   0.00000  -0.00002   0.00002  -0.00000
  26       14D 0        0.00014   0.00014   0.00014   0.00014  -0.00066
  27       14D+1       -0.00000  -0.00000   0.00000   0.00000   0.00000
  28       14D-1       -0.00002  -0.00002  -0.00001  -0.00001  -0.00128
  29       14D+2       -0.00022  -0.00021   0.00020   0.00021  -0.00012
  30       14D-2       -0.00000  -0.00000   0.00000   0.00000  -0.00000
  31       15D 0       -0.00062  -0.00061  -0.00058  -0.00060   0.00539
  32       15D+1       -0.00000   0.00000  -0.00000  -0.00000  -0.00000
  33       15D-1        0.00003   0.00002   0.00004   0.00004   0.00053
  34       15D+2        0.00100   0.00099  -0.00095  -0.00098   0.00016
  35       15D-2        0.00000   0.00000  -0.00000  -0.00000   0.00000
  36       16D 0       -0.00003  -0.00003  -0.00003  -0.00003   0.00057
  37       16D+1        0.00000   0.00000  -0.00000  -0.00000   0.00000
  38       16D-1        0.00001   0.00001   0.00000   0.00000  -0.00220
  39       16D+2        0.00004   0.00004  -0.00003  -0.00003  -0.00012
  40       16D-2        0.00000   0.00000  -0.00000  -0.00000  -0.00000
  41       17D 0       -0.00024  -0.00024  -0.00031  -0.00032   0.00086
  42       17D+1       -0.00000  -0.00000  -0.00000  -0.00000  -0.00000
  43       17D-1        0.00010   0.00010  -0.00001  -0.00001   0.00004
  44       17D+2        0.00006   0.00006   0.00009   0.00010   0.00039
  45       17D-2        0.00000  -0.00000   0.00000   0.00000   0.00000
  46       18F 0        0.00000   0.00000   0.00000  -0.00000   0.00000
  47       18F+1       -0.00005   0.00005  -0.00000   0.00000   0.00000
  48       18F-1       -0.00000   0.00000   0.00005  -0.00005  -0.00000
  49       18F+2       -0.00000  -0.00000   0.00000  -0.00000  -0.00000
  50       18F-2        0.00000  -0.00000   0.00000  -0.00000  -0.00000
  51       18F+3        0.00005  -0.00005  -0.00000   0.00000   0.00000
  52       18F-3        0.00000  -0.00000   0.00006  -0.00005   0.00000
  53       19F 0       -0.00000  -0.00000  -0.00000   0.00000  -0.00000
  54       19F+1        0.00024  -0.00024   0.00000  -0.00000   0.00000
  55       19F-1        0.00000  -0.00000  -0.00024   0.00023  -0.00000
  56       19F+2        0.00000   0.00000  -0.00001   0.00001   0.00000
  57       19F-2       -0.00001   0.00001  -0.00000   0.00000  -0.00000
  58       19F+3       -0.00027   0.00027   0.00000  -0.00000   0.00000
  59       19F-3       -0.00000   0.00000  -0.00028   0.00027  -0.00000
  60       20G 0        0.00003   0.00003   0.00003   0.00003   0.00295
  61       20G+1        0.00000  -0.00000   0.00000   0.00000   0.00000
  62       20G-1       -0.00000  -0.00000  -0.00000  -0.00000  -0.00231
  63       20G+2       -0.00005  -0.00005   0.00004   0.00005   0.00003
  64       20G-2       -0.00000  -0.00000   0.00000   0.00000  -0.00000
  65       20G+3       -0.00000   0.00000  -0.00000  -0.00000  -0.00000
  66       20G-3       -0.00000  -0.00000  -0.00000  -0.00000   0.00158
  67       20G+4        0.00006   0.00006   0.00006   0.00006  -0.00233
  68       20G-4        0.00000   0.00000   0.00000   0.00000  -0.00000
  69 2   O  1S          0.00010   0.00010  -0.01399   0.97319  -0.00077
  70        2S          0.00006   0.00006   0.00021  -0.00744   0.00083
  71        3S          0.00001   0.00001  -0.00075   0.05111  -0.00014
  72        4S         -0.00053  -0.00052  -0.00085   0.00473   0.00862
  73        5PX         0.00001  -0.00001   0.00000   0.00000  -0.00000
  74        5PY        -0.00001  -0.00001  -0.00000  -0.00068   0.00065
  75        5PZ         0.00000   0.00000  -0.00000   0.00023  -0.00002
  76        6PX        -0.00013   0.00013  -0.00000   0.00000  -0.00000
  77        6PY         0.00009   0.00009   0.00007  -0.00146   0.00120
  78        6PZ        -0.00001  -0.00001  -0.00002   0.00019   0.00013
  79        7PX        -0.00025   0.00025   0.00000   0.00000  -0.00000
  80        7PY         0.00003   0.00003  -0.00033  -0.00250   0.00534
  81        7PZ         0.00005   0.00005   0.00001   0.00027   0.00030
  82        8D 0       -0.00001  -0.00001   0.00000  -0.00029   0.00003
  83        8D+1       -0.00000   0.00000  -0.00000  -0.00000   0.00000
  84        8D-1       -0.00000  -0.00000   0.00000  -0.00008  -0.00001
  85        8D+2        0.00001   0.00001   0.00000  -0.00005  -0.00003
  86        8D-2       -0.00002   0.00002   0.00000  -0.00000  -0.00000
  87        9D 0        0.00008   0.00008   0.00003  -0.00020  -0.00135
  88        9D+1       -0.00002   0.00002   0.00000  -0.00000  -0.00000
  89        9D-1        0.00000   0.00000   0.00001  -0.00005   0.00001
  90        9D+2       -0.00008  -0.00008  -0.00003   0.00085  -0.00120
  91        9D-2        0.00017  -0.00017  -0.00000   0.00000  -0.00000
  92       10F 0       -0.00000  -0.00000   0.00000  -0.00004  -0.00002
  93       10F+1        0.00001  -0.00001   0.00000  -0.00000   0.00000
  94       10F-1        0.00000   0.00000  -0.00001   0.00013  -0.00020
  95       10F+2       -0.00000  -0.00000  -0.00000   0.00004   0.00002
  96       10F-2        0.00001  -0.00001  -0.00000   0.00000   0.00000
  97       10F+3        0.00002  -0.00002  -0.00000   0.00000   0.00000
  98       10F-3        0.00001   0.00001   0.00000  -0.00027  -0.00034
  99 3   H  1S         -0.00000   0.00002   0.00000   0.00033   0.00005
 100        2S         -0.00012   0.00049   0.00011  -0.00314  -0.00114
 101        3S         -0.00003  -0.00002  -0.00007  -0.00047   0.00055
 102        4PX        -0.00002   0.00004   0.00001  -0.00024  -0.00022
 103        4PY         0.00000   0.00004   0.00001  -0.00033   0.00012
 104        4PZ         0.00001  -0.00001  -0.00000   0.00005   0.00006
 105        5PX        -0.00008   0.00019   0.00005  -0.00137  -0.00015
 106        5PY        -0.00004   0.00014   0.00008  -0.00102  -0.00134
 107        5PZ        -0.00003  -0.00004  -0.00001   0.00021  -0.00005
 108        6D 0        0.00001  -0.00002  -0.00001   0.00050   0.00016
 109        6D+1        0.00000  -0.00001  -0.00000   0.00018   0.00004
 110        6D-1       -0.00001  -0.00001  -0.00001   0.00014   0.00003
 111        6D+2       -0.00003   0.00001  -0.00000  -0.00010   0.00002
 112        6D-2       -0.00002   0.00004   0.00003  -0.00103  -0.00010
 113 4   O  1S          0.97327  -0.00544  -0.00007  -0.00008  -0.00078
 114        2S         -0.00749   0.00016   0.00007   0.00007   0.00078
 115        3S          0.05112  -0.00031  -0.00000  -0.00000  -0.00010
 116        4S          0.00413  -0.00066  -0.00067  -0.00069   0.00666
 117        5PX        -0.00072  -0.00001  -0.00001  -0.00001   0.00064
 118        5PY        -0.00000  -0.00000  -0.00000   0.00000   0.00000
 119        5PZ         0.00000  -0.00000  -0.00002   0.00001  -0.00000
 120        6PX        -0.00137   0.00003   0.00009   0.00010   0.00134
 121        6PY        -0.00000   0.00000   0.00009  -0.00009   0.00000
 122        6PZ        -0.00000   0.00000   0.00010  -0.00010  -0.00000
 123        7PX        -0.00242  -0.00039   0.00010   0.00010   0.00605
 124        7PY        -0.00000  -0.00000   0.00036  -0.00035   0.00000
 125        7PZ         0.00000   0.00000   0.00016  -0.00016  -0.00000
 126        8D 0       -0.00019   0.00000  -0.00001  -0.00001   0.00001
 127        8D+1       -0.00000   0.00000   0.00001  -0.00001   0.00000
 128        8D-1        0.00020   0.00000   0.00000   0.00000  -0.00003
 129        8D+2        0.00012  -0.00000  -0.00001  -0.00001   0.00002
 130        8D-2        0.00000  -0.00000   0.00002  -0.00002   0.00000
 131        9D 0        0.00012  -0.00000   0.00006   0.00006  -0.00104
 132        9D+1       -0.00000  -0.00000  -0.00008   0.00008  -0.00000
 133        9D-1        0.00051  -0.00003  -0.00004  -0.00004   0.00035
 134        9D+2       -0.00067   0.00001   0.00005   0.00005   0.00137
 135        9D-2       -0.00000  -0.00000  -0.00016   0.00016   0.00000
 136       10F 0        0.00000  -0.00000  -0.00002   0.00002   0.00000
 137       10F+1        0.00001  -0.00001  -0.00000  -0.00000  -0.00023
 138       10F-1        0.00000  -0.00000  -0.00000   0.00000  -0.00000
 139       10F+2        0.00000  -0.00000   0.00000  -0.00000   0.00000
 140       10F-2       -0.00024   0.00001   0.00001   0.00001  -0.00004
 141       10F+3        0.00017   0.00000  -0.00000  -0.00000   0.00030
 142       10F-3        0.00000   0.00000   0.00002  -0.00002   0.00000
 143 5   H  1S          0.00032   0.00001  -0.00001   0.00001   0.00000
 144        2S         -0.00287   0.00002  -0.00017   0.00062  -0.00018
 145        3S         -0.00045  -0.00010  -0.00001  -0.00006   0.00058
 146        4PX        -0.00032   0.00001  -0.00001   0.00003   0.00013
 147        4PY         0.00019  -0.00001   0.00002  -0.00003   0.00017
 148        4PZ         0.00012  -0.00000   0.00002  -0.00002   0.00012
 149        5PX        -0.00094   0.00004  -0.00006   0.00016  -0.00110
 150        5PY         0.00107  -0.00000   0.00006  -0.00017  -0.00018
 151        5PZ         0.00070   0.00000   0.00000  -0.00015  -0.00011
 152        6D 0        0.00026  -0.00001   0.00000  -0.00000   0.00008
 153        6D+1        0.00055  -0.00001  -0.00001  -0.00003   0.00004
 154        6D-1       -0.00044  -0.00000  -0.00002   0.00003  -0.00010
 155        6D+2       -0.00004   0.00001   0.00001  -0.00000  -0.00005
 156        6D-2        0.00085  -0.00001   0.00002  -0.00003   0.00004
 157 6   O  1S          0.00010   0.00010   0.97319   0.01404  -0.00077
 158        2S          0.00006   0.00006  -0.00745  -0.00000   0.00083
 159        3S          0.00001   0.00001   0.05111   0.00072  -0.00014
 160        4S         -0.00053  -0.00052   0.00475  -0.00072   0.00862
 161        5PX         0.00001  -0.00001  -0.00000  -0.00000   0.00000
 162        5PY         0.00001   0.00001   0.00068   0.00002  -0.00065
 163        5PZ        -0.00000  -0.00000  -0.00023  -0.00001   0.00001
 164        6PX        -0.00013   0.00013  -0.00000   0.00000   0.00000
 165        6PY        -0.00009  -0.00009   0.00146  -0.00002  -0.00120
 166        6PZ         0.00001   0.00001  -0.00019   0.00001  -0.00013
 167        7PX        -0.00025   0.00025  -0.00000  -0.00000   0.00000
 168        7PY        -0.00003  -0.00003   0.00249   0.00041  -0.00534
 169        7PZ        -0.00005  -0.00005  -0.00027  -0.00002  -0.00030
 170        8D 0       -0.00001  -0.00001  -0.00029  -0.00000   0.00003
 171        8D+1        0.00000  -0.00000  -0.00000  -0.00000   0.00000
 172        8D-1       -0.00000  -0.00000  -0.00008  -0.00000  -0.00001
 173        8D+2        0.00001   0.00001  -0.00005   0.00000  -0.00003
 174        8D-2        0.00002  -0.00002  -0.00000   0.00000  -0.00000
 175        9D 0        0.00008   0.00008  -0.00020   0.00002  -0.00135
 176        9D+1        0.00002  -0.00002  -0.00000   0.00000  -0.00000
 177        9D-1        0.00000   0.00000  -0.00005   0.00001   0.00001
 178        9D+2       -0.00008  -0.00008   0.00085  -0.00001  -0.00120
 179        9D-2       -0.00017   0.00017   0.00000  -0.00000  -0.00000
 180       10F 0        0.00000   0.00000   0.00004  -0.00000   0.00002
 181       10F+1        0.00001  -0.00001   0.00000  -0.00000  -0.00000
 182       10F-1       -0.00000  -0.00000  -0.00013   0.00001   0.00020
 183       10F+2        0.00000   0.00000  -0.00004   0.00000  -0.00002
 184       10F-2        0.00001  -0.00001  -0.00000   0.00000  -0.00000
 185       10F+3        0.00002  -0.00002  -0.00000  -0.00000  -0.00000
 186       10F-3       -0.00001  -0.00001   0.00027   0.00000   0.00034
 187 7   H  1S          0.00002  -0.00000   0.00033   0.00001   0.00005
 188        2S          0.00049  -0.00013  -0.00314   0.00002  -0.00114
 189        3S         -0.00002  -0.00003  -0.00047  -0.00009   0.00055
 190        4PX        -0.00004   0.00002   0.00024  -0.00000   0.00022
 191        4PY        -0.00004  -0.00000   0.00033  -0.00000  -0.00012
 192        4PZ         0.00001  -0.00001  -0.00005   0.00000  -0.00006
 193        5PX        -0.00018   0.00008   0.00137  -0.00001   0.00015
 194        5PY        -0.00014   0.00004   0.00103  -0.00005   0.00134
 195        5PZ         0.00004   0.00003  -0.00021   0.00000   0.00005
 196        6D 0       -0.00002   0.00001   0.00050   0.00000   0.00016
 197        6D+1       -0.00001   0.00000   0.00018   0.00000   0.00004
 198        6D-1       -0.00001  -0.00001   0.00014  -0.00000   0.00003
 199        6D+2        0.00001  -0.00003  -0.00010  -0.00001   0.00002
 200        6D-2        0.00004  -0.00002  -0.00103  -0.00000  -0.00010
 201 8   O  1S          0.00549   0.97327  -0.00007  -0.00008  -0.00078
 202        2S          0.00007  -0.00749   0.00007   0.00007   0.00078
 203        3S          0.00027   0.05112  -0.00000  -0.00000  -0.00010
 204        4S         -0.00062   0.00414  -0.00067  -0.00069   0.00666
 205        5PX         0.00001   0.00072   0.00001   0.00001  -0.00064
 206        5PY         0.00000   0.00000  -0.00000   0.00000  -0.00000
 207        5PZ         0.00000   0.00000  -0.00002   0.00001  -0.00000
 208        6PX        -0.00001   0.00137  -0.00009  -0.00009  -0.00134
 209        6PY         0.00000   0.00000   0.00009  -0.00009  -0.00000
 210        6PZ        -0.00000   0.00000   0.00010  -0.00010   0.00000
 211        7PX         0.00042   0.00242  -0.00010  -0.00010  -0.00605
 212        7PY         0.00000   0.00000   0.00036  -0.00035  -0.00000
 213        7PZ         0.00000   0.00000   0.00016  -0.00016   0.00000
 214        8D 0        0.00000  -0.00019  -0.00001  -0.00001   0.00001
 215        8D+1       -0.00000  -0.00000  -0.00001   0.00001   0.00000
 216        8D-1        0.00000   0.00020   0.00000   0.00000  -0.00003
 217        8D+2        0.00000   0.00012  -0.00001  -0.00001   0.00002
 218        8D-2       -0.00000   0.00000  -0.00002   0.00002   0.00000
 219        9D 0       -0.00000   0.00013   0.00006   0.00006  -0.00104
 220        9D+1        0.00000  -0.00000   0.00008  -0.00008  -0.00000
 221        9D-1       -0.00003   0.00051  -0.00004  -0.00004   0.00035
 222        9D+2        0.00000  -0.00067   0.00005   0.00005   0.00137
 223        9D-2        0.00000  -0.00000   0.00016  -0.00016   0.00000
 224       10F 0        0.00000   0.00000  -0.00002   0.00002   0.00000
 225       10F+1        0.00001  -0.00001   0.00000   0.00000   0.00023
 226       10F-1        0.00000   0.00000  -0.00000   0.00000   0.00000
 227       10F+2        0.00000  -0.00000   0.00000  -0.00000  -0.00000
 228       10F-2       -0.00000   0.00024  -0.00001  -0.00001   0.00004
 229       10F+3       -0.00001  -0.00017   0.00000   0.00000  -0.00030
 230       10F-3       -0.00000  -0.00000   0.00002  -0.00002  -0.00000
 231 9   H  1S          0.00001   0.00032   0.00001  -0.00001   0.00000
 232        2S         -0.00002  -0.00287   0.00063  -0.00015  -0.00018
 233        3S         -0.00010  -0.00045  -0.00006  -0.00002   0.00058
 234        4PX        -0.00001   0.00032  -0.00003   0.00000  -0.00013
 235        4PY         0.00000  -0.00019   0.00003  -0.00002  -0.00017
 236        4PZ         0.00000  -0.00012   0.00002  -0.00002  -0.00012
 237        5PX        -0.00003   0.00094  -0.00016   0.00005   0.00110
 238        5PY        -0.00001  -0.00107   0.00017  -0.00005   0.00018
 239        5PZ        -0.00001  -0.00070   0.00015   0.00000   0.00011
 240        6D 0       -0.00000   0.00026  -0.00000   0.00000   0.00008
 241        6D+1        0.00000   0.00055  -0.00003  -0.00001   0.00004
 242        6D-1       -0.00001  -0.00044   0.00003  -0.00001  -0.00010
 243        6D+2        0.00001  -0.00004  -0.00000   0.00001  -0.00005
 244        6D-2       -0.00000   0.00085  -0.00004   0.00002   0.00004
 245 10  H  1S          0.00001   0.00032  -0.00001   0.00001   0.00000
 246        2S         -0.00002  -0.00287  -0.00017   0.00062  -0.00018
 247        3S         -0.00010  -0.00045  -0.00001  -0.00006   0.00058
 248        4PX        -0.00001   0.00032   0.00001  -0.00003  -0.00013
 249        4PY        -0.00000   0.00019   0.00002  -0.00003   0.00017
 250        4PZ        -0.00000   0.00012   0.00002  -0.00002   0.00012
 251        5PX        -0.00003   0.00094   0.00006  -0.00016   0.00110
 252        5PY         0.00001   0.00107   0.00006  -0.00017  -0.00017
 253        5PZ         0.00001   0.00070   0.00000  -0.00015  -0.00011
 254        6D 0       -0.00000   0.00026   0.00000  -0.00000   0.00008
 255        6D+1       -0.00000  -0.00055   0.00001   0.00003  -0.00004
 256        6D-1       -0.00001  -0.00044  -0.00002   0.00003  -0.00010
 257        6D+2        0.00001  -0.00004   0.00001  -0.00000  -0.00005
 258        6D-2        0.00000  -0.00085  -0.00002   0.00003  -0.00004
 259 11  H  1S          0.00002  -0.00000   0.00000   0.00033   0.00005
 260        2S          0.00049  -0.00013   0.00011  -0.00314  -0.00114
 261        3S         -0.00002  -0.00003  -0.00007  -0.00047   0.00055
 262        4PX        -0.00004   0.00002  -0.00001   0.00024   0.00022
 263        4PY         0.00004   0.00000   0.00001  -0.00033   0.00012
 264        4PZ        -0.00001   0.00001  -0.00000   0.00005   0.00006
 265        5PX        -0.00018   0.00008  -0.00005   0.00137   0.00015
 266        5PY         0.00014  -0.00004   0.00008  -0.00102  -0.00134
 267        5PZ        -0.00004  -0.00003  -0.00001   0.00021  -0.00005
 268        6D 0       -0.00002   0.00001  -0.00001   0.00050   0.00016
 269        6D+1        0.00001  -0.00000   0.00000  -0.00018  -0.00004
 270        6D-1       -0.00001  -0.00001  -0.00001   0.00014   0.00003
 271        6D+2        0.00001  -0.00003  -0.00000  -0.00010   0.00002
 272        6D-2       -0.00004   0.00002  -0.00003   0.00103   0.00010
 273 12  H  1S          0.00032   0.00001   0.00001  -0.00001   0.00000
 274        2S         -0.00287   0.00002   0.00063  -0.00015  -0.00018
 275        3S         -0.00045  -0.00010  -0.00006  -0.00002   0.00058
 276        4PX        -0.00032   0.00001   0.00003  -0.00000   0.00013
 277        4PY        -0.00019   0.00001   0.00003  -0.00002  -0.00017
 278        4PZ        -0.00012   0.00000   0.00002  -0.00002  -0.00012
 279        5PX        -0.00094   0.00004   0.00016  -0.00005  -0.00110
 280        5PY        -0.00107   0.00000   0.00017  -0.00005   0.00017
 281        5PZ        -0.00070  -0.00000   0.00015   0.00000   0.00011
 282        6D 0        0.00026  -0.00001  -0.00000   0.00000   0.00008
 283        6D+1       -0.00055   0.00001   0.00003   0.00001  -0.00004
 284        6D-1       -0.00044  -0.00000   0.00003  -0.00001  -0.00010
 285        6D+2       -0.00004   0.00001  -0.00000   0.00001  -0.00005
 286        6D-2       -0.00085   0.00001   0.00004  -0.00002  -0.00004
 287 13  H  1S         -0.00000   0.00002   0.00033   0.00001   0.00005
 288        2S         -0.00012   0.00049  -0.00314   0.00002  -0.00114
 289        3S         -0.00003  -0.00002  -0.00047  -0.00009   0.00055
 290        4PX        -0.00002   0.00004  -0.00024   0.00000  -0.00022
 291        4PY        -0.00000  -0.00004   0.00033  -0.00000  -0.00012
 292        4PZ        -0.00001   0.00001  -0.00005   0.00000  -0.00006
 293        5PX        -0.00008   0.00019  -0.00137   0.00001  -0.00015
 294        5PY         0.00004  -0.00014   0.00103  -0.00005   0.00134
 295        5PZ         0.00003   0.00004  -0.00021   0.00000   0.00005
 296        6D 0        0.00001  -0.00002   0.00050   0.00000   0.00016
 297        6D+1       -0.00000   0.00001  -0.00018  -0.00000  -0.00004
 298        6D-1       -0.00001  -0.00001   0.00014  -0.00000   0.00003
 299        6D+2       -0.00003   0.00001  -0.00010  -0.00001   0.00002
 300        6D-2        0.00002  -0.00004   0.00103   0.00000   0.00010
                          11        12        13        14        15
                           O         O         O         O         O
     Eigenvalues --    -2.62912  -2.62108  -2.61405  -1.58542  -1.57282
   1 1   Mn 1S          0.00000   0.00000   0.00000  -0.00749   0.00000
   2        2S         -0.00000  -0.00000  -0.00000   0.02647  -0.00000
   3        3S          0.00000   0.00000   0.00000  -0.06339   0.00001
   4        4S         -0.00000  -0.00000   0.00000   0.07861  -0.00001
   5        5S         -0.00000  -0.00000  -0.00000   0.08272  -0.00001
   6        6S         -0.00000  -0.00000   0.00000  -0.02193   0.00000
   7        7S          0.00000  -0.00000  -0.00000   0.00851  -0.00000
   8        8PX        -0.00026   0.35733  -0.00022  -0.00000  -0.03024
   9        8PY         0.25783   0.00034   0.24750   0.00000  -0.00001
  10        8PZ        -0.24880  -0.00002   0.25819   0.00000  -0.00000
  11        9PX         0.00036  -0.50036   0.00031   0.00001   0.04378
  12        9PY        -0.36039  -0.00048  -0.34690  -0.00001   0.00002
  13        9PZ         0.34891   0.00003  -0.36403  -0.00000   0.00000
  14       10PX        -0.00003   0.04529  -0.00003   0.00000   0.02579
  15       10PY         0.03185   0.00004   0.03233  -0.00000   0.00001
  16       10PZ        -0.02904  -0.00000   0.03035  -0.00000   0.00000
  17       11PX        -0.00001   0.00912  -0.00001   0.00000   0.02485
  18       11PY         0.00738   0.00001   0.00550  -0.00000   0.00001
  19       11PZ        -0.00434  -0.00000   0.00358  -0.00000   0.00000
  20       12PX        -0.00045   0.62114  -0.00039  -0.00001  -0.06055
  21       12PY         0.44852   0.00059   0.43002   0.00001  -0.00003
  22       12PZ        -0.43266  -0.00003   0.44818   0.00000  -0.00000
  23       13PX         0.00000  -0.00094   0.00000  -0.00000  -0.00578
  24       13PY        -0.00074  -0.00000  -0.00056   0.00000  -0.00000
  25       13PZ         0.00057   0.00000  -0.00045  -0.00000  -0.00000
  26       14D 0       -0.00000   0.00000   0.00000  -0.01933   0.00000
  27       14D+1        0.00000  -0.00000  -0.00000  -0.00000  -0.00000
  28       14D-1        0.00000   0.00000   0.00000   0.00114   0.00000
  29       14D+2        0.00000  -0.00000   0.00000   0.00329   0.00001
  30       14D-2       -0.00000   0.00000  -0.00000   0.00000   0.00000
  31       15D 0        0.00000   0.00000  -0.00000  -0.01291   0.00000
  32       15D+1       -0.00000  -0.00000  -0.00000   0.00000  -0.00000
  33       15D-1        0.00000   0.00000  -0.00000  -0.00059   0.00000
  34       15D+2       -0.00000  -0.00000   0.00000   0.00200   0.00001
  35       15D-2        0.00000   0.00000  -0.00000   0.00000   0.00000
  36       16D 0        0.00000  -0.00000  -0.00000  -0.02038   0.00000
  37       16D+1        0.00000   0.00000  -0.00000  -0.00000  -0.00000
  38       16D-1       -0.00000   0.00000  -0.00000   0.00108   0.00000
  39       16D+2       -0.00000  -0.00000   0.00000   0.00333   0.00001
  40       16D-2       -0.00000  -0.00000   0.00000   0.00000   0.00000
  41       17D 0       -0.00000   0.00000  -0.00000   0.01057  -0.00000
  42       17D+1        0.00000   0.00000  -0.00000   0.00000   0.00000
  43       17D-1        0.00000   0.00000   0.00000  -0.00034  -0.00000
  44       17D+2       -0.00000  -0.00000   0.00000  -0.00316  -0.00001
  45       17D-2        0.00000  -0.00000   0.00000  -0.00000  -0.00000
  46       18F 0        0.00379   0.00000  -0.00165  -0.00000   0.00000
  47       18F+1        0.00000   0.00182  -0.00000   0.00000   0.00036
  48       18F-1       -0.00117   0.00000   0.00392  -0.00000   0.00000
  49       18F+2       -0.00103   0.00000  -0.00094   0.00000  -0.00000
  50       18F-2       -0.00000  -0.00159   0.00000   0.00000   0.00011
  51       18F+3        0.00000   0.00281   0.00000  -0.00000  -0.00091
  52       18F-3       -0.00108   0.00000  -0.00275  -0.00000  -0.00000
  53       19F 0        0.00326   0.00000  -0.00094  -0.00000   0.00000
  54       19F+1        0.00000   0.00210  -0.00000   0.00000   0.00426
  55       19F-1       -0.00027   0.00000   0.00349  -0.00000   0.00000
  56       19F+2       -0.00062   0.00000  -0.00070   0.00000  -0.00000
  57       19F-2       -0.00000  -0.00181   0.00000  -0.00000  -0.00010
  58       19F+3        0.00000   0.00187   0.00000  -0.00000  -0.00483
  59       19F-3       -0.00065   0.00000  -0.00204  -0.00000  -0.00001
  60       20G 0       -0.00000   0.00000   0.00000   0.00036  -0.00000
  61       20G+1        0.00000   0.00000  -0.00000  -0.00000   0.00000
  62       20G-1        0.00000  -0.00000   0.00000   0.00010  -0.00000
  63       20G+2       -0.00000  -0.00000  -0.00000  -0.00008  -0.00000
  64       20G-2       -0.00000   0.00000   0.00000  -0.00000  -0.00000
  65       20G+3       -0.00000  -0.00000   0.00000  -0.00000  -0.00000
  66       20G-3       -0.00000   0.00000   0.00000   0.00009   0.00000
  67       20G+4       -0.00000   0.00000  -0.00000   0.00069  -0.00000
  68       20G-4        0.00000   0.00000   0.00000   0.00000   0.00000
  69 2   O  1S         -0.00325  -0.00000  -0.00319  -0.09322   0.00007
  70        2S          0.00651   0.00000   0.00654   0.21312  -0.00015
  71        3S          0.00120   0.00000   0.00129   0.06457  -0.00005
  72        4S          0.00729   0.00000   0.00485   0.12568  -0.00009
  73        5PX        -0.00000  -0.00066  -0.00000   0.00001  -0.00329
  74        5PY         0.00312   0.00000   0.00312  -0.01402   0.00001
  75        5PZ         0.00041   0.00000  -0.00040   0.00463  -0.00000
  76        6PX        -0.00000  -0.00087  -0.00000   0.00001  -0.00345
  77        6PY         0.00486   0.00000   0.00476  -0.01352   0.00001
  78        6PZ         0.00069   0.00000  -0.00060   0.00583  -0.00000
  79        7PX        -0.00000   0.00034  -0.00000  -0.00000  -0.00193
  80        7PY         0.00092   0.00000   0.00037   0.00803  -0.00001
  81        7PZ         0.00056  -0.00000  -0.00021   0.00005  -0.00000
  82        8D 0       -0.00014  -0.00000  -0.00020  -0.00128   0.00000
  83        8D+1        0.00000   0.00000  -0.00000  -0.00000  -0.00004
  84        8D-1       -0.00001   0.00000   0.00003  -0.00035   0.00000
  85        8D+2       -0.00027  -0.00000  -0.00028   0.00033  -0.00000
  86        8D-2       -0.00000  -0.00007  -0.00000   0.00000  -0.00002
  87        9D 0       -0.00172  -0.00000  -0.00128  -0.00508   0.00000
  88        9D+1       -0.00000  -0.00002   0.00000  -0.00000   0.00020
  89        9D-1        0.00087  -0.00000  -0.00110  -0.00127   0.00000
  90        9D+2       -0.00249  -0.00000  -0.00240  -0.00205   0.00000
  91        9D-2       -0.00000  -0.00108  -0.00000  -0.00000  -0.00091
  92       10F 0       -0.00017   0.00000   0.00015  -0.00029   0.00000
  93       10F+1        0.00000   0.00005   0.00000  -0.00000   0.00003
  94       10F-1       -0.00038  -0.00000  -0.00034   0.00044  -0.00000
  95       10F+2       -0.00025   0.00000   0.00023  -0.00003   0.00000
  96       10F-2       -0.00000  -0.00001   0.00000   0.00000  -0.00001
  97       10F+3        0.00000   0.00024   0.00000   0.00000   0.00003
  98       10F-3       -0.00057   0.00000  -0.00047  -0.00114   0.00000
  99 3   H  1S          0.00027   0.00016   0.00022   0.03559   0.00112
 100        2S         -0.00128   0.00071  -0.00070   0.03209   0.00250
 101        3S         -0.00004   0.00004   0.00001   0.00330   0.00021
 102        4PX        -0.00008   0.00006  -0.00007   0.00478   0.00012
 103        4PY         0.00013   0.00006   0.00013   0.00381   0.00020
 104        4PZ         0.00006  -0.00001  -0.00005  -0.00062  -0.00003
 105        5PX        -0.00065   0.00018  -0.00049   0.00484   0.00003
 106        5PY        -0.00020   0.00013   0.00013   0.00492   0.00119
 107        5PZ         0.00014  -0.00007  -0.00006  -0.00068  -0.00007
 108        6D 0        0.00008   0.00004   0.00007  -0.00086  -0.00012
 109        6D+1        0.00014  -0.00001  -0.00007  -0.00017   0.00001
 110        6D-1        0.00001  -0.00001  -0.00004  -0.00024  -0.00001
 111        6D+2       -0.00015   0.00004  -0.00021   0.00008  -0.00005
 112        6D-2        0.00003   0.00001   0.00006   0.00132   0.00000
 113 4   O  1S          0.00000  -0.00458   0.00000  -0.11573  -0.15030
 114        2S         -0.00000   0.00929  -0.00000   0.26461   0.34445
 115        3S         -0.00000   0.00177  -0.00000   0.08012   0.10507
 116        4S         -0.00000   0.00883  -0.00000   0.16469   0.20512
 117        5PX        -0.00000   0.00443  -0.00000  -0.01835  -0.02975
 118        5PY        -0.00044   0.00000  -0.00048  -0.00001  -0.00002
 119        5PZ         0.00038  -0.00000  -0.00046   0.00000   0.00000
 120        6PX        -0.00000   0.00684  -0.00000  -0.01864  -0.03166
 121        6PY        -0.00065   0.00000  -0.00062  -0.00001  -0.00002
 122        6PZ         0.00062  -0.00000  -0.00060   0.00000   0.00000
 123        7PX        -0.00000   0.00094  -0.00000   0.00596   0.01385
 124        7PY         0.00011   0.00000   0.00050   0.00000   0.00001
 125        7PZ         0.00078   0.00000   0.00004  -0.00000  -0.00000
 126        8D 0        0.00000  -0.00023   0.00000  -0.00089  -0.00119
 127        8D+1       -0.00005  -0.00000   0.00000  -0.00000  -0.00000
 128        8D-1       -0.00000   0.00002  -0.00000   0.00138   0.00183
 129        8D+2       -0.00000   0.00038  -0.00000   0.00008   0.00027
 130        8D-2       -0.00003   0.00000  -0.00009   0.00000   0.00000
 131        9D 0        0.00000  -0.00214   0.00000  -0.00490  -0.00473
 132        9D+1        0.00107  -0.00000  -0.00099  -0.00000  -0.00000
 133        9D-1        0.00000   0.00008  -0.00000   0.00391   0.00503
 134        9D+2       -0.00000   0.00355  -0.00000   0.00359   0.00238
 135        9D-2       -0.00084   0.00000  -0.00059   0.00000   0.00000
 136       10F 0       -0.00020   0.00000   0.00015  -0.00000  -0.00000
 137       10F+1        0.00000  -0.00053   0.00000  -0.00000   0.00022
 138       10F-1        0.00003  -0.00000   0.00005   0.00000   0.00000
 139       10F+2        0.00024   0.00000  -0.00020   0.00000   0.00000
 140       10F-2        0.00000  -0.00004  -0.00000  -0.00139  -0.00178
 141       10F+3        0.00000   0.00072  -0.00000   0.00100   0.00113
 142       10F-3       -0.00026   0.00000  -0.00013   0.00000   0.00000
 143 5   H  1S          0.00002   0.00035  -0.00016   0.04421   0.05890
 144        2S         -0.00045  -0.00147  -0.00072   0.03543   0.05296
 145        3S         -0.00014  -0.00001  -0.00002   0.00383   0.00153
 146        4PX         0.00002   0.00019  -0.00005   0.00462   0.00611
 147        4PY        -0.00004   0.00009   0.00007  -0.00500  -0.00669
 148        4PZ         0.00006   0.00006   0.00001  -0.00319  -0.00431
 149        5PX        -0.00020  -0.00006  -0.00015   0.00514   0.00595
 150        5PY        -0.00001   0.00071   0.00015  -0.00379  -0.00811
 151        5PZ         0.00010   0.00045   0.00007  -0.00345  -0.00601
[...]
 283         V                 6.667137         12.651749
 284         V                 6.678221         10.114222
 285         V                 6.716378         11.756004
 286         V                 6.717965         10.082000
 287         V                 6.719404         11.227821
 288         V                 6.797999         12.648454
 289         V                 6.918767         10.406028
 290         V                 7.046870         10.596400
 291         V                 7.051806         10.625232
 292         V                 7.077692         11.171842
 293         V                 7.095240         11.359248
 294         V                 7.115391         10.887179
 295         V                 7.454097         13.265319
 296         V                 7.466683         13.269563
 297         V                11.540194         32.944448
 298         V                11.641523         33.060270
 299         V                11.703912         33.518556
 300         V                11.946670         34.061159
 Total kinetic energy from orbitals= 1.452822830122D+03
 Calling FoFJK, ICntrl=      2527 FMM=F ISym2X=0 I1Cent= 4 IOpClX= 0 NMat=1 NMatS=1 NMatT=0.
 ***** Axes restored to original set *****
 -------------------------------------------------------------------
 Center     Atomic                   Forces (Hartrees/Bohr)
 Number     Number              X              Y              Z
 -------------------------------------------------------------------
      1       25          -0.000000000   -0.000000000   -0.000000000
      2        8          -0.000000000   -0.000000000   -0.000000000
      3        1          -0.000002349   -0.000008356    0.000002264
      4        8          -0.000000000   -0.000000000   -0.000000000
      5        1          -0.000000748   -0.000005448   -0.000001460
      6        8          -0.000000000   -0.000000000   -0.000000000
      7        1           0.000004273   -0.000001828   -0.000000184
      8        8          -0.000000000   -0.000000000   -0.000000000
      9        1          -0.000002461    0.000002875    0.000001374
     10        1          -0.000004222   -0.000000757    0.000001635
     11        1           0.000003440    0.000001206    0.000001419
     12        1          -0.000003552    0.000004941    0.000003973
     13        1          -0.000002270   -0.000003646    0.000000658
 -------------------------------------------------------------------
 Cartesian Forces:  Max     0.000008356 RMS     0.000002576

 GradGradGradGradGradGradGradGradGradGradGradGradGradGradGradGradGradGrad
 Berny optimization.
 FormGI is forming the generalized inverse of G from B-inverse, IUseBI=4.
 Internal  Forces:  Max     0.000009292 RMS     0.000003024
 Search for a local minimum.
 Step number   1 out of a maximum of   69
 All quantities printed in internal units (Hartrees-Bohrs-Radians)
 Mixed Optimization -- En-DIIS/RFO-DIIS
 Second derivative matrix not updated -- first step.
 ITU=  0
     Eigenvalues ---    0.01600   0.01600   0.02285   0.02285   0.02359
     Eigenvalues ---    0.02359   0.04340   0.04340   0.16000   0.16000
     Eigenvalues ---    0.16000   0.16000   0.16000   0.16000   0.16000
     Eigenvalues ---    0.16000   0.48308   0.48309   0.48310   0.48310
     Eigenvalues ---    0.48541   0.48543   0.48543   0.485431000.00000
     Eigenvalues --- 1000.000001000.000001000.000001000.000001000.00000
     Eigenvalues --- 1000.000001000.000001000.000001000.000001000.00000
     Eigenvalues --- 1000.000001000.000001000.000001000.000001000.00000
     Eigenvalues --- 1000.000001000.000001000.000001000.000001000.00000
     Eigenvalues --- 1000.000001000.000001000.000001000.000001000.00000
     Eigenvalues --- 1000.000001000.000001000.000001000.000001000.00000
     Eigenvalues --- 1000.000001000.000001000.000001000.00000
 RFO step:  Lambda= 0.00000000D+00 EMin= 1.60006223D-02
 Linear search not attempted -- first point.
 Iteration  1 RMS(Cart)=  0.00002077 RMS(Int)=  0.00000000
 Iteration  2 RMS(Cart)=  0.00000000 RMS(Int)=  0.00000000
 Variable       Old X    -DE/DX   Delta X   Delta X   Delta X     New X
                                 (Linear)    (Quad)   (Total)
    X1       -0.00001   0.00000   0.00000   0.00000   0.00000  -0.00001
    Y1       -0.00003   0.00000   0.00000   0.00000   0.00000  -0.00003
    Z1        0.00006   0.00000   0.00000   0.00000   0.00000   0.00006
    X2        0.00173  -0.00000   0.00000   0.00000   0.00000   0.00173
    Y2        3.45820  -0.00001   0.00000   0.00000   0.00000   3.45820
    Z2       -0.00346   0.00000   0.00000   0.00000   0.00000  -0.00346
    X4       -3.45820  -0.00000   0.00000   0.00000  -0.00000  -3.45820
    Y4        0.00174  -0.00000   0.00000   0.00000   0.00000   0.00174
    Z4       -0.00004   0.00000   0.00000   0.00000   0.00000  -0.00004
    X6       -0.00172   0.00000   0.00000   0.00000   0.00000  -0.00172
    Y6       -3.45820  -0.00001   0.00000   0.00000   0.00000  -3.45820
    Z6        0.00349   0.00000   0.00000   0.00000   0.00000   0.00349
    X8        3.45820  -0.00001   0.00000   0.00000   0.00000   3.45820
    Y8       -0.00171   0.00000   0.00000   0.00000  -0.00000  -0.00171
    Z8       -0.00007   0.00000   0.00000   0.00000   0.00000  -0.00007
    R1        1.88067  -0.00000   0.00000  -0.00001  -0.00001   1.88066
    R2        1.88065   0.00000   0.00000   0.00001   0.00001   1.88065
    R3        1.88310   0.00000   0.00000   0.00001   0.00001   1.88311
    R4        1.88310   0.00001   0.00000   0.00001   0.00001   1.88311
    R5        1.88065   0.00000   0.00000   0.00001   0.00001   1.88066
    R6        1.88064   0.00000   0.00000   0.00001   0.00001   1.88065
    R7        1.88311   0.00000   0.00000   0.00000   0.00000   1.88312
    R8        1.88312  -0.00000   0.00000  -0.00001  -0.00001   1.88312
    A1        2.22058  -0.00001   0.00000  -0.00006  -0.00006   2.22053
    A2        2.22041   0.00000   0.00000   0.00003   0.00003   2.22044
    A3        1.81755   0.00001   0.00000   0.00004   0.00004   1.81759
    A4        2.22671  -0.00000   0.00000  -0.00002  -0.00002   2.22669
    A5        2.22657   0.00000   0.00000   0.00000   0.00000   2.22657
    A6        1.82990   0.00000   0.00000   0.00001   0.00001   1.82992
    A7        2.22048  -0.00000   0.00000  -0.00001  -0.00001   2.22046
    A8        2.22047   0.00000   0.00000   0.00002   0.00002   2.22048
    A9        1.81762  -0.00000   0.00000  -0.00000  -0.00000   1.81761
   A10        2.22670  -0.00000   0.00000  -0.00002  -0.00002   2.22668
   A11        2.22660  -0.00000   0.00000  -0.00001  -0.00001   2.22659
   A12        1.82988   0.00000   0.00000   0.00003   0.00003   1.82991
    D1       -0.13774   0.00000   0.00000   0.00003   0.00003  -0.13771
    D2       -3.00437  -0.00000   0.00000  -0.00002  -0.00002  -3.00439
    D3        3.00378   0.00000   0.00000   0.00003   0.00003   3.00381
    D4        0.13716   0.00000   0.00000  -0.00002  -0.00002   0.13714
    D5        3.14157   0.00000   0.00000   0.00002   0.00002   3.14159
    D6       -0.27488   0.00000   0.00000   0.00003   0.00003  -0.27485
    D7        0.27496  -0.00000   0.00000  -0.00003  -0.00003   0.27493
    D8       -3.14148  -0.00000   0.00000  -0.00002  -0.00002  -3.14151
    D9        2.57017   0.00000   0.00000   0.00003   0.00003   2.57020
   D10       -0.57137   0.00000   0.00000  -0.00001  -0.00001  -0.57138
   D11       -0.57140   0.00000   0.00000   0.00003   0.00003  -0.57137
   D12        2.57024   0.00000   0.00000  -0.00001  -0.00001   2.57023
   D13        3.14152   0.00000   0.00000   0.00002   0.00002   3.14154
   D14        0.00015   0.00000   0.00000  -0.00000  -0.00000   0.00015
   D15        0.00003  -0.00000   0.00000  -0.00002  -0.00002   0.00001
   D16       -3.14134  -0.00000   0.00000  -0.00004  -0.00004  -3.14138
   D17       -3.00385  -0.00000   0.00000  -0.00001  -0.00001  -3.00386
   D18       -0.13713   0.00000   0.00000  -0.00001  -0.00001  -0.13714
   D19        0.13781  -0.00000   0.00000  -0.00001  -0.00001   0.13779
   D20        3.00453  -0.00000   0.00000  -0.00001  -0.00001   3.00452
   D21        0.57141  -0.00000   0.00000  -0.00001  -0.00001   0.57140
   D22       -2.57001  -0.00000   0.00000  -0.00003  -0.00003  -2.57004
   D23       -2.57021  -0.00000   0.00000  -0.00001  -0.00001  -2.57022
   D24        0.57155  -0.00000   0.00000  -0.00003  -0.00003   0.57152
         Item               Value     Threshold  Converged?
 Maximum Force            0.000009     0.000450     YES
 RMS     Force            0.000003     0.000300     YES
 Maximum Displacement     0.000087     0.001800     YES
 RMS     Displacement     0.000021     0.001200     YES
 Predicted change in Energy=-8.838137D-10
 Optimization completed.
    -- Stationary point found.
                           ----------------------------
                           !   Optimized Parameters   !
                           ! (Angstroms and Degrees)  !
 --------------------------                            --------------------------
 ! Name  Definition              Value          Derivative Info.                !
 --------------------------------------------------------------------------------
 ! X1    R(1,-1)                 0.0            -DE/DX =    0.0                 !
 ! Y1    R(1,-2)                 0.0            -DE/DX =    0.0                 !
 ! Z1    R(1,-3)                 0.0            -DE/DX =    0.0                 !
 ! X2    R(2,-1)                 0.0009         -DE/DX =    0.0                 !
 ! Y2    R(2,-2)                 1.83           -DE/DX =    0.0                 !
 ! Z2    R(2,-3)                -0.0018         -DE/DX =    0.0                 !
 ! X4    R(4,-1)                -1.83           -DE/DX =    0.0                 !
 ! Y4    R(4,-2)                 0.0009         -DE/DX =    0.0                 !
 ! Z4    R(4,-3)                 0.0            -DE/DX =    0.0                 !
 ! X6    R(6,-1)                -0.0009         -DE/DX =    0.0                 !
 ! Y6    R(6,-2)                -1.83           -DE/DX =    0.0                 !
 ! Z6    R(6,-3)                 0.0018         -DE/DX =    0.0                 !
 ! X8    R(8,-1)                 1.83           -DE/DX =    0.0                 !
 ! Y8    R(8,-2)                -0.0009         -DE/DX =    0.0                 !
 ! Z8    R(8,-3)                 0.0            -DE/DX =    0.0                 !
 ! R1    R(2,3)                  0.9952         -DE/DX =    0.0                 !
 ! R2    R(2,11)                 0.9952         -DE/DX =    0.0                 !
 ! R3    R(4,5)                  0.9965         -DE/DX =    0.0                 !
 ! R4    R(4,12)                 0.9965         -DE/DX =    0.0                 !
 ! R5    R(6,7)                  0.9952         -DE/DX =    0.0                 !
 ! R6    R(6,13)                 0.9952         -DE/DX =    0.0                 !
 ! R7    R(8,9)                  0.9965         -DE/DX =    0.0                 !
 ! R8    R(8,10)                 0.9965         -DE/DX =    0.0                 !
 ! A1    A(1,2,3)              127.2301         -DE/DX =    0.0                 !
 ! A2    A(1,2,11)             127.2201         -DE/DX =    0.0                 !
 ! A3    A(3,2,11)             104.138          -DE/DX =    0.0                 !
 ! A4    A(1,4,5)              127.5811         -DE/DX =    0.0                 !
 ! A5    A(1,4,12)             127.5731         -DE/DX =    0.0                 !
 ! A6    A(5,4,12)             104.8458         -DE/DX =    0.0                 !
 ! A7    A(1,6,7)              127.224          -DE/DX =    0.0                 !
 ! A8    A(1,6,13)             127.2234         -DE/DX =    0.0                 !
 ! A9    A(7,6,13)             104.1417         -DE/DX =    0.0                 !
 ! A10   A(1,8,9)              127.5805         -DE/DX =    0.0                 !
 ! A11   A(1,8,10)             127.5748         -DE/DX =    0.0                 !
 ! A12   A(9,8,10)             104.8447         -DE/DX =    0.0                 !
 ! D1    D(4,1,2,3)             -7.8922         -DE/DX =    0.0                 !
 ! D2    D(4,1,2,11)          -172.1377         -DE/DX =    0.0                 !
 ! D3    D(8,1,2,3)            172.104          -DE/DX =    0.0                 !
 ! D4    D(8,1,2,11)             7.8585         -DE/DX =    0.0                 !
 ! D5    D(3,2,6,7)            179.9987         -DE/DX =    0.0                 !
 ! D6    D(3,2,6,13)           -15.7493         -DE/DX =    0.0                 !
 ! D7    D(11,2,6,7)            15.7543         -DE/DX =    0.0                 !
 ! D8    D(11,2,6,13)         -179.9937         -DE/DX =    0.0                 !
 ! D9    D(2,1,4,5)            147.2598         -DE/DX =    0.0                 !
 ! D10   D(2,1,4,12)           -32.7373         -DE/DX =    0.0                 !
 ! D11   D(6,1,4,5)            -32.7388         -DE/DX =    0.0                 !
 ! D12   D(6,1,4,12)           147.2641         -DE/DX =    0.0                 !
 ! D13   D(5,4,8,9)            179.9959         -DE/DX =    0.0                 !
 ! D14   D(5,4,8,10)             0.0089         -DE/DX =    0.0                 !
 ! D15   D(12,4,8,9)             0.0018         -DE/DX =    0.0                 !
 ! D16   D(12,4,8,10)         -179.9853         -DE/DX =    0.0                 !
 ! D17   D(4,1,6,7)           -172.1079         -DE/DX =    0.0                 !
 ! D18   D(4,1,6,13)            -7.857          -DE/DX =    0.0                 !
 ! D19   D(8,1,6,7)              7.8958         -DE/DX =    0.0                 !
 ! D20   D(8,1,6,13)           172.1467         -DE/DX =    0.0                 !
 ! D21   D(2,1,8,9)             32.7391         -DE/DX =    0.0                 !
 ! D22   D(2,1,8,10)          -147.2509         -DE/DX =    0.0                 !
 ! D23   D(6,1,8,9)           -147.2623         -DE/DX =    0.0                 !
 ! D24   D(6,1,8,10)            32.7476         -DE/DX =    0.0                 !
 --------------------------------------------------------------------------------
 GradGradGradGradGradGradGradGradGradGradGradGradGradGradGradGradGradGrad

                          Input orientation:                          
 ---------------------------------------------------------------------
 Center     Atomic      Atomic             Coordinates (Angstroms)
 Number     Number       Type             X           Y           Z
 ---------------------------------------------------------------------
      1         25           0       -0.000004   -0.000013    0.000030
      2          8           0        0.000913    1.829999   -0.001831
      3          1           0       -0.783673    2.432399   -0.111269
      4          8           0       -1.830001    0.000919   -0.000020
      5          1           0       -2.438074   -0.663458   -0.426462
      6          8           0       -0.000911   -1.829999    0.001846
      7          1           0        0.783733   -2.432306    0.111274
      8          8           0        1.829999   -0.000905   -0.000039
      9          1           0        2.438080    0.663503    0.426356
     10          1           0        2.437326   -0.665885   -0.426632
     11          1           0        0.786259    2.431467   -0.110829
     12          1           0       -2.437308    0.666007    0.426400
     13          1           0       -0.786230   -2.431519    0.110752
 ---------------------------------------------------------------------
                    Distance matrix (angstroms):
                    1          2          3          4          5
     1  Mn   0.000000
     2  O    1.830014   0.000000
     3  H    2.557959   0.995208   0.000000
     4  O    1.829997   2.588007   2.649391   0.000000
     5  H    2.562467   3.513730   3.524305   0.996496   0.000000
     6  O    1.829986   3.660000   4.335153   2.588017   2.735695
     7  H    2.557864   4.335072   5.115823   3.572755   3.714569
     8  O    1.830004   2.588005   3.572761   3.660000   4.340191
     9  H    2.562472   2.735661   3.714529   4.340199   5.124939
    10  H    2.562422   3.513688   4.480364   4.340127   4.875401
    11  H    2.557850   0.995195   1.569933   3.572766   4.480459
    12  H    2.562386   2.735541   2.478656   0.996493   1.579510
    13  H    2.557856   4.335067   4.868983   2.649242   2.478553
                    6          7          8          9         10
     6  O    0.000000
     7  H    0.995196   0.000000
     8  O    2.588015   2.649297   0.000000
     9  H    3.513750   3.524227   0.996501   0.000000
    10  H    2.735645   2.478700   0.996507   1.579513   0.000000
    11  H    4.335023   4.868843   2.649170   2.478463   3.524109
    12  H    3.513733   4.480397   4.340107   4.875389   5.124808
    13  H    0.995194   1.569963   3.572788   4.480507   3.714506
                   11         12         13
    11  H    0.000000
    12  H    3.714411   0.000000
    13  H    5.115706   3.524253   0.000000
 Stoichiometry    H8MnO4(3+)
 Framework group  C1[X(H8MnO4)]
 Deg. of freedom    33
 Full point group                 C1      NOp   1
 Largest Abelian subgroup         C1      NOp   1
 Largest concise Abelian subgroup C1      NOp   1
                         Standard orientation:                         
 ---------------------------------------------------------------------
 Center     Atomic      Atomic             Coordinates (Angstroms)
 Number     Number       Type             X           Y           Z
 ---------------------------------------------------------------------
      1         25           0       -0.000004    0.000013   -0.000030
      2          8           0        0.000913   -1.829999    0.001831
      3          1           0       -0.783673   -2.432399    0.111269
      4          8           0       -1.830001   -0.000920    0.000020
      5          1           0       -2.438074    0.663458    0.426462
      6          8           0       -0.000911    1.829999   -0.001846
      7          1           0        0.783733    2.432306   -0.111274
      8          8           0        1.829999    0.000905    0.000039
      9          1           0        2.438080   -0.663503   -0.426356
     10          1           0        2.437326    0.665885    0.426632
     11          1           0        0.786259   -2.431467    0.110829
     12          1           0       -2.437308   -0.666007   -0.426400
     13          1           0       -0.786230    2.431519   -0.110752
 ---------------------------------------------------------------------
 Rotational constants (GHZ):      3.7845630      3.7615701      1.8976080
 1\1\GINC-HECTOR-MACBOOKAIR\FOpt\RPBEPBE\CC-pVTZ/def2TZV\H8Mn1O4(3+)\HE
 CTOR\08-Aug-2024\0\\# opt rpbepbe/cc-pvtz/def2tzv pop=full geom=connec
 tivity output=wfx\\Mn3_cuadrado_plano_cc-pvtz-def2-tzv_1\\3,1\Mn,-0.00
 000447,-0.00001336,0.00003048\O,0.000913,1.82999944,-0.00183093\H,-0.7
 8367328,2.43239945,-0.11126851\O,-1.83000084,0.00091949,-0.00001957\H,
 -2.43807408,-0.6634581,-0.42646222\O,-0.00091131,-1.82999854,0.0018459
 1\H,0.78373329,-2.43230596,0.11127391\O,1.82999899,-0.00090484,-0.0000
 3944\H,2.43807997,0.66350331,0.42635579\H,2.43732596,-0.66588513,-0.42
 663176\H,0.78625907,2.43146743,-0.11082874\H,-2.43730814,0.66600719,0.
 42640012\H,-0.78622977,-2.43151866,0.11075164\\Version=EM64L-G09RevE.0
 1\State=1-A\HF=-1455.9603488\RMSD=9.350e-09\RMSF=2.576e-06\Dipole=0.00
 00421,0.0000627,-0.0002161\Quadrupole=12.1008478,10.2954346,-22.396282
 3,-0.0003662,0.0011757,0.5899361\PG=C01 [X(H8Mn1O4)]\\@

 Writing a WFNX file to "Mn3_cuadrado_plano_cc-pvtz-def2-tzv_1.wfx"


 PICNIC:  A SNACK IN THE GRASS.
 Job cpu time:       0 days  0 hours  2 minutes 21.4 seconds.
 File lengths (MBytes):  RWF=     49 Int=      0 D2E=      0 Chk=      7 Scr=      1
 Normal termination of Gaussian 09 at Thu Aug  8 09:27:21 2024.
